1.734499931335449219e+01 0.000000000000000000e+00 0.000000000000000000e+00 -1.809999942779541016e-01 1.750499916076660156e+01 0.000000000000000000e+00 -3.619999885559082031e-01 -3.519999980926513672e-01 1.727599906921386719e+01
1.881800079345703125e+01 0.000000000000000000e+00 0.000000000000000000e+00 -1.959999948740005493e-01 1.899099922180175781e+01 0.000000000000000000e+00 -3.930000066757202148e-01 -3.819999992847442627e-01 1.874200057983398438e+01
1.888500022888183594e+01 0.000000000000000000e+00 0.000000000000000000e+00 -1.969999969005584717e-01 1.905800056457519531e+01 0.000000000000000000e+00 -3.939999938011169434e-01 -3.829999864101409912e-01 1.880900001525878906e+01
1.878400039672851562e+01 0.000000000000000000e+00 0.000000000000000000e+00 -1.959999948740005493e-01 1.895599937438964844e+01 0.000000000000000000e+00 -3.919999897480010986e-01 -3.810000121593475342e-01 1.870800018310546875e+01
1.867900085449218750e+01 0.000000000000000000e+00 0.000000000000000000e+00 -1.949999928474426270e-01 1.885000038146972656e+01 0.000000000000000000e+00 -3.899999856948852539e-01 -3.790000081062316895e-01 1.860300064086914062e+01
1.877599906921386719e+01 0.000000000000000000e+00 0.000000000000000000e+00 -1.959999948740005493e-01 1.894899940490722656e+01 0.000000000000000000e+00 -3.919999897480010986e-01 -3.810000121593475342e-01 1.870100021362304688e+01
1.899900054931640625e+01 0.000000000000000000e+00 0.000000000000000000e+00 -1.979999989271163940e-01 1.917399978637695312e+01 0.000000000000000000e+00 -3.959999978542327881e-01 -3.849999904632568359e-01 1.892300033569335938e+01
1.897999954223632812e+01 0.000000000000000000e+00 0.000000000000000000e+00 -1.979999989271163940e-01 1.915500068664550781e+01 0.000000000000000000e+00 -3.959999978542327881e-01 -3.849999904632568359e-01 1.890399932861328125e+01
1.902400016784667969e+01 0.000000000000000000e+00 0.000000000000000000e+00 -1.979999989271163940e-01 1.919799995422363281e+01 0.000000000000000000e+00 -3.970000147819519043e-01 -3.860000073909759521e-01 1.894700050354003906e+01
1.894700050354003906e+01 0.000000000000000000e+00 0.000000000000000000e+00 -1.969999969005584717e-01 1.912100028991699219e+01 0.000000000000000000e+00 -3.950000107288360596e-01 -3.840000033378601074e-01 1.887000083923339844e+01
1.908600044250488281e+01 0.000000000000000000e+00 0.000000000000000000e+00 -1.990000009536743164e-01 1.926199913024902344e+01 0.000000000000000000e+00 -3.980000019073486328e-01 -3.869999945163726807e-01 1.900900077819824219e+01
1.920800018310546875e+01 0.000000000000000000e+00 0.000000000000000000e+00 -2.000000029802322388e-01 1.938400077819824219e+01 0.000000000000000000e+00 -4.009999930858612061e-01 -3.899999856948852539e-01 1.913100051879882812e+01
1.905900001525878906e+01 0.000000000000000000e+00 0.000000000000000000e+00 -1.990000009536743164e-01 1.923500061035156250e+01 0.000000000000000000e+00 -3.980000019073486328e-01 -3.869999945163726807e-01 1.898299980163574219e+01
1.918099975585937500e+01 0.000000000000000000e+00 0.000000000000000000e+00 -2.000000029802322388e-01 1.935700035095214844e+01 0.000000000000000000e+00 -4.000000059604644775e-01 -3.889999985694885254e-01 1.910400009155273438e+01
1.925499916076660156e+01 0.000000000000000000e+00 0.000000000000000000e+00 -2.010000050067901611e-01 1.943199920654296875e+01 0.000000000000000000e+00 -4.020000100135803223e-01 -3.910000026226043701e-01 1.917799949645996094e+01
1.917700004577636719e+01 0.000000000000000000e+00 0.000000000000000000e+00 -2.000000029802322388e-01 1.935400009155273438e+01 0.000000000000000000e+00 -4.000000059604644775e-01 -3.889999985694885254e-01 1.910000038146972656e+01
1.901600074768066406e+01 0.000000000000000000e+00 0.000000000000000000e+00 -1.979999989271163940e-01 1.919099998474121094e+01 0.000000000000000000e+00 -3.970000147819519043e-01 -3.860000073909759521e-01 1.893899917602539062e+01
1.909900093078613281e+01 0.000000000000000000e+00 0.000000000000000000e+00 -1.990000009536743164e-01 1.927499961853027344e+01 0.000000000000000000e+00 -3.980000019073486328e-01 -3.869999945163726807e-01 1.902199935913085938e+01
1.905900001525878906e+01 0.000000000000000000e+00 0.000000000000000000e+00 -1.990000009536743164e-01 1.923399925231933594e+01 0.000000000000000000e+00 -3.980000019073486328e-01 -3.869999945163726807e-01 1.898200035095214844e+01
1.882200050354003906e+01 0.000000000000000000e+00 0.000000000000000000e+00 -1.959999948740005493e-01 1.899500083923339844e+01 0.000000000000000000e+00 -3.930000066757202148e-01 -3.819999992847442627e-01 1.874600028991699219e+01
1.907500076293945312e+01 0.000000000000000000e+00 0.000000000000000000e+00 -1.990000009536743164e-01 1.925000000000000000e+01 0.000000000000000000e+00 -3.980000019073486328e-01 -3.869999945163726807e-01 1.899799919128417969e+01
1.915399932861328125e+01 0.000000000000000000e+00 0.000000000000000000e+00 -1.990000009536743164e-01 1.932999992370605469e+01 0.000000000000000000e+00 -4.000000059604644775e-01 -3.889999985694885254e-01 1.907699966430664062e+01
1.802099990844726562e+01 0.000000000000000000e+00 0.000000000000000000e+00 -1.879999935626983643e-01 1.818700027465820312e+01 0.000000000000000000e+00 -3.759999871253967285e-01 -3.659999966621398926e-01 1.794899940490722656e+01
1.840299987792968750e+01 0.000000000000000000e+00 0.000000000000000000e+00 -1.920000016689300537e-01 1.857200050354003906e+01 0.000000000000000000e+00 -3.840000033378601074e-01 -3.729999959468841553e-01 1.832900047302246094e+01
1.835499954223632812e+01 0.000000000000000000e+00 0.000000000000000000e+00 -1.909999996423721313e-01 1.852300071716308594e+01 0.000000000000000000e+00 -3.829999864101409912e-01 -3.720000088214874268e-01 1.828100013732910156e+01
1.861400032043457031e+01 0.000000000000000000e+00 0.000000000000000000e+00 -1.940000057220458984e-01 1.878499984741210938e+01 0.000000000000000000e+00 -3.880000114440917969e-01 -3.779999911785125732e-01 1.853899955749511719e+01
1.863400077819824219e+01 0.000000000000000000e+00 0.000000000000000000e+00 -1.940000057220458984e-01 1.880500030517578125e+01 0.000000000000000000e+00 -3.889999985694885254e-01 -3.779999911785125732e-01 1.855900001525878906e+01
1.887700080871582031e+01 0.000000000000000000e+00 0.000000000000000000e+00 -1.969999969005584717e-01 1.905100059509277344e+01 0.000000000000000000e+00 -3.939999938011169434e-01 -3.829999864101409912e-01 1.880100059509277344e+01
1.876099967956542969e+01 0.000000000000000000e+00 0.000000000000000000e+00 -1.949999928474426270e-01 1.893400001525878906e+01 0.000000000000000000e+00 -3.910000026226043701e-01 -3.810000121593475342e-01 1.868600082397460938e+01
1.888500022888183594e+01 0.000000000000000000e+00 0.000000000000000000e+00 -1.969999969005584717e-01 1.905800056457519531e+01 0.000000000000000000e+00 -3.939999938011169434e-01 -3.829999864101409912e-01 1.880900001525878906e+01
1.905800056457519531e+01 0.000000000000000000e+00 0.000000000000000000e+00 -1.979999989271163940e-01 1.923299980163574219e+01 0.000000000000000000e+00 -3.980000019073486328e-01 -3.869999945163726807e-01 1.898100090026855469e+01
1.878400039672851562e+01 0.000000000000000000e+00 0.000000000000000000e+00 -1.959999948740005493e-01 1.895700073242187500e+01 0.000000000000000000e+00 -3.919999897480010986e-01 -3.810000121593475342e-01 1.870899963378906250e+01
1.885000038146972656e+01 0.000000000000000000e+00 0.000000000000000000e+00 -1.959999948740005493e-01 1.902300071716308594e+01 0.000000000000000000e+00 -3.930000066757202148e-01 -3.819999992847442627e-01 1.877400016784667969e+01
1.899699974060058594e+01 0.000000000000000000e+00 0.000000000000000000e+00 -1.979999989271163940e-01 1.917200088500976562e+01 0.000000000000000000e+00 -3.959999978542327881e-01 -3.849999904632568359e-01 1.892099952697753906e+01
1.905100059509277344e+01 0.000000000000000000e+00 0.000000000000000000e+00 -1.979999989271163940e-01 1.922599983215332031e+01 0.000000000000000000e+00 -3.970000147819519043e-01 -3.860000073909759521e-01 1.897500038146972656e+01
1.905999946594238281e+01 0.000000000000000000e+00 0.000000000000000000e+00 -1.990000009536743164e-01 1.923600006103515625e+01 0.000000000000000000e+00 -3.980000019073486328e-01 -3.869999945163726807e-01 1.898399925231933594e+01
1.920599937438964844e+01 0.000000000000000000e+00 0.000000000000000000e+00 -2.000000029802322388e-01 1.938199996948242188e+01 0.000000000000000000e+00 -4.009999930858612061e-01 -3.899999856948852539e-01 1.912800025939941406e+01
1.891799926757812500e+01 0.000000000000000000e+00 0.000000000000000000e+00 -1.969999969005584717e-01 1.909199905395507812e+01 0.000000000000000000e+00 -3.950000107288360596e-01 -3.840000033378601074e-01 1.884199905395507812e+01
1.898900032043457031e+01 0.000000000000000000e+00 0.000000000000000000e+00 -1.979999989271163940e-01 1.916300010681152344e+01 0.000000000000000000e+00 -3.959999978542327881e-01 -3.849999904632568359e-01 1.891200065612792969e+01
1.895100021362304688e+01 0.000000000000000000e+00 0.000000000000000000e+00 -1.969999969005584717e-01 1.912500000000000000e+01 0.000000000000000000e+00 -3.950000107288360596e-01 -3.840000033378601074e-01 1.887500000000000000e+01
1.887700080871582031e+01 0.000000000000000000e+00 0.000000000000000000e+00 -1.969999969005584717e-01 1.904999923706054688e+01 0.000000000000000000e+00 -3.939999938011169434e-01 -3.829999864101409912e-01 1.880100059509277344e+01
1.922999954223632812e+01 0.000000000000000000e+00 0.000000000000000000e+00 -2.000000029802322388e-01 1.940600013732910156e+01 0.000000000000000000e+00 -4.009999930858612061e-01 -3.899999856948852539e-01 1.915200042724609375e+01
1.894599914550781250e+01 0.000000000000000000e+00 0.000000000000000000e+00 -1.969999969005584717e-01 1.912000083923339844e+01 0.000000000000000000e+00 -3.950000107288360596e-01 -3.840000033378601074e-01 1.886899948120117188e+01
1.903899955749511719e+01 0.000000000000000000e+00 0.000000000000000000e+00 -1.979999989271163940e-01 1.921400070190429688e+01 0.000000000000000000e+00 -3.970000147819519043e-01 -3.860000073909759521e-01 1.896199989318847656e+01
1.913500022888183594e+01 0.000000000000000000e+00 0.000000000000000000e+00 -1.990000009536743164e-01 1.931100082397460938e+01 0.000000000000000000e+00 -3.989999890327453613e-01 -3.880000114440917969e-01 1.905800056457519531e+01
1.734499931335449219e+01 0.000000000000000000e+00 0.000000000000000000e+00 -1.809999942779541016e-01 1.750499916076660156e+01 0.000000000000000000e+00 -3.619999885559082031e-01 -3.519999980926513672e-01 1.727599906921386719e+01
1.851000022888183594e+01 0.000000000000000000e+00 0.000000000000000000e+00 -1.930000036954879761e-01 1.868000030517578125e+01 0.000000000000000000e+00 -3.860000073909759521e-01 -3.750000000000000000e-01 1.843600082397460938e+01
1.883699989318847656e+01 0.000000000000000000e+00 0.000000000000000000e+00 -1.959999948740005493e-01 1.901000022888183594e+01 0.000000000000000000e+00 -3.930000066757202148e-01 -3.819999992847442627e-01 1.876099967956542969e+01
1.893700027465820312e+01 0.000000000000000000e+00 0.000000000000000000e+00 -1.969999969005584717e-01 1.911100006103515625e+01 0.000000000000000000e+00 -3.950000107288360596e-01 -3.840000033378601074e-01 1.886100006103515625e+01
1.903499984741210938e+01 0.000000000000000000e+00 0.000000000000000000e+00 -1.979999989271163940e-01 1.920999908447265625e+01 0.000000000000000000e+00 -3.970000147819519043e-01 -3.860000073909759521e-01 1.895899963378906250e+01
1.894899940490722656e+01 0.000000000000000000e+00 0.000000000000000000e+00 -1.969999969005584717e-01 1.912299919128417969e+01 0.000000000000000000e+00 -3.950000107288360596e-01 -3.840000033378601074e-01 1.887199974060058594e+01
1.910099983215332031e+01 0.000000000000000000e+00 0.000000000000000000e+00 -1.990000009536743164e-01 1.927599906921386719e+01 0.000000000000000000e+00 -3.980000019073486328e-01 -3.869999945163726807e-01 1.902400016784667969e+01
1.921999931335449219e+01 0.000000000000000000e+00 0.000000000000000000e+00 -2.000000029802322388e-01 1.939699935913085938e+01 0.000000000000000000e+00 -4.009999930858612061e-01 -3.899999856948852539e-01 1.914299964904785156e+01
1.925499916076660156e+01 0.000000000000000000e+00 0.000000000000000000e+00 -2.010000050067901611e-01 1.943199920654296875e+01 0.000000000000000000e+00 -4.020000100135803223e-01 -3.910000026226043701e-01 1.917700004577636719e+01
1.916600036621093750e+01 0.000000000000000000e+00 0.000000000000000000e+00 -2.000000029802322388e-01 1.934199905395507812e+01 0.000000000000000000e+00 -4.000000059604644775e-01 -3.889999985694885254e-01 1.908900070190429688e+01
1.926099967956542969e+01 0.000000000000000000e+00 0.000000000000000000e+00 -2.010000050067901611e-01 1.943799972534179688e+01 0.000000000000000000e+00 -4.020000100135803223e-01 -3.910000026226043701e-01 1.918300056457519531e+01
1.934099960327148438e+01 0.000000000000000000e+00 0.000000000000000000e+00 -2.010000050067901611e-01 1.951799964904785156e+01 0.000000000000000000e+00 -4.029999971389770508e-01 -3.919999897480010986e-01 1.926300048828125000e+01
1.934399986267089844e+01 0.000000000000000000e+00 0.000000000000000000e+00 -2.010000050067901611e-01 1.952199935913085938e+01 0.000000000000000000e+00 -4.040000140666961670e-01 -3.919999897480010986e-01 1.926600074768066406e+01
1.942200088500976562e+01 0.000000000000000000e+00 0.000000000000000000e+00 -2.020000070333480835e-01 1.960000038146972656e+01 0.000000000000000000e+00 -4.050000011920928955e-01 -3.939999938011169434e-01 1.934300041198730469e+01
1.939100074768066406e+01 0.000000000000000000e+00 0.000000000000000000e+00 -2.020000070333480835e-01 1.956900024414062500e+01 0.000000000000000000e+00 -4.050000011920928955e-01 -3.930000066757202148e-01 1.931299972534179688e+01
1.932500076293945312e+01 0.000000000000000000e+00 0.000000000000000000e+00 -2.010000050067901611e-01 1.950300025939941406e+01 0.000000000000000000e+00 -4.029999971389770508e-01 -3.919999897480010986e-01 1.924699974060058594e+01
1.934000015258789062e+01 0.000000000000000000e+00 0.000000000000000000e+00 -2.010000050067901611e-01 1.951700019836425781e+01 0.000000000000000000e+00 -4.029999971389770508e-01 -3.919999897480010986e-01 1.926199913024902344e+01
1.957399940490722656e+01 0.000000000000000000e+00 0.000000000000000000e+00 -2.039999961853027344e-01 1.975300025939941406e+01 0.000000000000000000e+00 -4.079999923706054688e-01 -3.970000147819519043e-01 1.949500083923339844e+01
1.954199981689453125e+01 0.000000000000000000e+00 0.000000000000000000e+00 -2.039999961853027344e-01 1.972200012207031250e+01 0.000000000000000000e+00 -4.079999923706054688e-01 -3.959999978542327881e-01 1.946400070190429688e+01
1.954000091552734375e+01 0.000000000000000000e+00 0.000000000000000000e+00 -2.039999961853027344e-01 1.971899986267089844e+01 0.000000000000000000e+00 -4.079999923706054688e-01 -3.959999978542327881e-01 1.946100044250488281e+01
1.955500030517578125e+01 0.000000000000000000e+00 0.000000000000000000e+00 -2.039999961853027344e-01 1.973399925231933594e+01 0.000000000000000000e+00 -4.079999923706054688e-01 -3.970000147819519043e-01 1.947599983215332031e+01
1.929599952697753906e+01 0.000000000000000000e+00 0.000000000000000000e+00 -2.010000050067901611e-01 1.947299957275390625e+01 0.000000000000000000e+00 -4.029999971389770508e-01 -3.910000026226043701e-01 1.921800041198730469e+01
1.970999908447265625e+01 0.000000000000000000e+00 0.000000000000000000e+00 -2.049999982118606567e-01 1.989100074768066406e+01 0.000000000000000000e+00 -4.110000133514404297e-01 -4.000000059604644775e-01 1.963100051879882812e+01
1.965099906921386719e+01 0.000000000000000000e+00 0.000000000000000000e+00 -2.049999982118606567e-01 1.983200073242187500e+01 0.000000000000000000e+00 -4.099999964237213135e-01 -3.989999890327453613e-01 1.957200050354003906e+01
1.965800094604492188e+01 0.000000000000000000e+00 0.000000000000000000e+00 -2.049999982118606567e-01 1.983799934387207031e+01 0.000000000000000000e+00 -4.099999964237213135e-01 -3.989999890327453613e-01 1.957900047302246094e+01
1.942000007629394531e+01 0.000000000000000000e+00 0.000000000000000000e+00 -2.020000070333480835e-01 1.959900093078613281e+01 0.000000000000000000e+00 -4.050000011920928955e-01 -3.939999938011169434e-01 1.934199905395507812e+01
1.939999961853027344e+01 0.000000000000000000e+00 0.000000000000000000e+00 -2.020000070333480835e-01 1.957799911499023438e+01 0.000000000000000000e+00 -4.050000011920928955e-01 -3.939999938011169434e-01 1.932200050354003906e+01
1.845899963378906250e+01 0.000000000000000000e+00 0.000000000000000000e+00 -1.920000016689300537e-01 1.862800025939941406e+01 0.000000000000000000e+00 -3.849999904632568359e-01 -3.740000128746032715e-01 1.838400077819824219e+01
1.879000091552734375e+01 0.000000000000000000e+00 0.000000000000000000e+00 -1.959999948740005493e-01 1.896299934387207031e+01 0.000000000000000000e+00 -3.919999897480010986e-01 -3.810000121593475342e-01 1.871500015258789062e+01
1.897299957275390625e+01 0.000000000000000000e+00 0.000000000000000000e+00 -1.979999989271163940e-01 1.914800071716308594e+01 0.000000000000000000e+00 -3.959999978542327881e-01 -3.849999904632568359e-01 1.889699935913085938e+01
1.921500015258789062e+01 0.000000000000000000e+00 0.000000000000000000e+00 -2.000000029802322388e-01 1.939100074768066406e+01 0.000000000000000000e+00 -4.009999930858612061e-01 -3.899999856948852539e-01 1.913699913024902344e+01
1.930299949645996094e+01 0.000000000000000000e+00 0.000000000000000000e+00 -2.010000050067901611e-01 1.947999954223632812e+01 0.000000000000000000e+00 -4.029999971389770508e-01 -3.919999897480010986e-01 1.922500038146972656e+01
1.915299987792968750e+01 0.000000000000000000e+00 0.000000000000000000e+00 -1.990000009536743164e-01 1.932900047302246094e+01 0.000000000000000000e+00 -4.000000059604644775e-01 -3.889999985694885254e-01 1.907600021362304688e+01
1.925900077819824219e+01 0.000000000000000000e+00 0.000000000000000000e+00 -2.010000050067901611e-01 1.943600082397460938e+01 0.000000000000000000e+00 -4.020000100135803223e-01 -3.910000026226043701e-01 1.918099975585937500e+01
1.931900024414062500e+01 0.000000000000000000e+00 0.000000000000000000e+00 -2.010000050067901611e-01 1.949699974060058594e+01 0.000000000000000000e+00 -4.029999971389770508e-01 -3.919999897480010986e-01 1.924099922180175781e+01
1.924200057983398438e+01 0.000000000000000000e+00 0.000000000000000000e+00 -2.000000029802322388e-01 1.941900062561035156e+01 0.000000000000000000e+00 -4.009999930858612061e-01 -3.899999856948852539e-01 1.916399955749511719e+01
1.943899917602539062e+01 0.000000000000000000e+00 0.000000000000000000e+00 -2.020000070333480835e-01 1.961700057983398438e+01 0.000000000000000000e+00 -4.059999883174896240e-01 -3.939999938011169434e-01 1.936000061035156250e+01
1.960300064086914062e+01 0.000000000000000000e+00 0.000000000000000000e+00 -2.039999961853027344e-01 1.978300094604492188e+01 0.000000000000000000e+00 -4.090000092983245850e-01 -3.980000019073486328e-01 1.952400016784667969e+01
1.934499931335449219e+01 0.000000000000000000e+00 0.000000000000000000e+00 -2.010000050067901611e-01 1.952199935913085938e+01 0.000000000000000000e+00 -4.040000140666961670e-01 -3.919999897480010986e-01 1.926700019836425781e+01
1.936499977111816406e+01 0.000000000000000000e+00 0.000000000000000000e+00 -2.020000070333480835e-01 1.954199981689453125e+01 0.000000000000000000e+00 -4.040000140666961670e-01 -3.930000066757202148e-01 1.928700065612792969e+01
1.947900009155273438e+01 0.000000000000000000e+00 0.000000000000000000e+00 -2.029999941587448120e-01 1.965800094604492188e+01 0.000000000000000000e+00 -4.059999883174896240e-01 -3.950000107288360596e-01 1.939999961853027344e+01
1.940999984741210938e+01 0.000000000000000000e+00 0.000000000000000000e+00 -2.020000070333480835e-01 1.958900070190429688e+01 0.000000000000000000e+00 -4.050000011920928955e-01 -3.939999938011169434e-01 1.933200073242187500e+01
1.932799911499023438e+01 0.000000000000000000e+00 0.000000000000000000e+00 -2.010000050067901611e-01 1.950600051879882812e+01 0.000000000000000000e+00 -4.029999971389770508e-01 -3.919999897480010986e-01 1.925099945068359375e+01
1.934300041198730469e+01 0.000000000000000000e+00 0.000000000000000000e+00 -2.010000050067901611e-01 1.952099990844726562e+01 0.000000000000000000e+00 -4.040000140666961670e-01 -3.919999897480010986e-01 1.926499938964843750e+01
1.955200004577636719e+01 0.000000000000000000e+00 0.000000000000000000e+00 -2.039999961853027344e-01 1.973200035095214844e+01 0.000000000000000000e+00 -4.079999923706054688e-01 -3.970000147819519043e-01 1.947400093078613281e+01
1.946899986267089844e+01 0.000000000000000000e+00 0.000000000000000000e+00 -2.029999941587448120e-01 1.964800071716308594e+01 0.000000000000000000e+00 -4.059999883174896240e-01 -3.950000107288360596e-01 1.939100074768066406e+01
1.978700065612792969e+01 0.000000000000000000e+00 0.000000000000000000e+00 -2.060000002384185791e-01 1.996899986267089844e+01 0.000000000000000000e+00 -4.129999876022338867e-01 -4.009999930858612061e-01 1.970800018310546875e+01
1.975399971008300781e+01 0.000000000000000000e+00 0.000000000000000000e+00 -2.060000002384185791e-01 1.993499946594238281e+01 0.000000000000000000e+00 -4.120000004768371582e-01 -4.009999930858612061e-01 1.967399978637695312e+01
1.734499931335449219e+01 0.000000000000000000e+00 0.000000000000000000e+00 -1.809999942779541016e-01 1.750499916076660156e+01 0.000000000000000000e+00 -3.619999885559082031e-01 -3.519999980926513672e-01 1.727599906921386719e+01
1.842399978637695312e+01 0.000000000000000000e+00 0.000000000000000000e+00 -1.920000016689300537e-01 1.859300041198730469e+01 0.000000000000000000e+00 -3.840000033378601074e-01 -3.740000128746032715e-01 1.835000038146972656e+01
1.963599967956542969e+01 0.000000000000000000e+00 0.000000000000000000e+00 -2.049999982118606567e-01 1.981699943542480469e+01 0.000000000000000000e+00 -4.099999964237213135e-01 -3.980000019073486328e-01 1.955699920654296875e+01
1.938299942016601562e+01 0.000000000000000000e+00 0.000000000000000000e+00 -2.020000070333480835e-01 1.956100082397460938e+01 0.000000000000000000e+00 -4.040000140666961670e-01 -3.930000066757202148e-01 1.930500030517578125e+01
1.944000053405761719e+01 0.000000000000000000e+00 0.000000000000000000e+00 -2.020000070333480835e-01 1.961899948120117188e+01 0.000000000000000000e+00 -4.059999883174896240e-01 -3.939999938011169434e-01 1.936199951171875000e+01
1.949799919128417969e+01 0.000000000000000000e+00 0.000000000000000000e+00 -2.029999941587448120e-01 1.967700004577636719e+01 0.000000000000000000e+00 -4.070000052452087402e-01 -3.959999978542327881e-01 1.941900062561035156e+01
1.979299926757812500e+01 0.000000000000000000e+00 0.000000000000000000e+00 -2.060000002384185791e-01 1.997500038146972656e+01 0.000000000000000000e+00 -4.129999876022338867e-01 -4.020000100135803223e-01 1.971400070190429688e+01
1.962599945068359375e+01 0.000000000000000000e+00 0.000000000000000000e+00 -2.039999961853027344e-01 1.980599975585937500e+01 0.000000000000000000e+00 -4.090000092983245850e-01 -3.980000019073486328e-01 1.954700088500976562e+01
1.989599990844726562e+01 0.000000000000000000e+00 0.000000000000000000e+00 -2.070000022649765015e-01 2.007900047302246094e+01 0.000000000000000000e+00 -4.149999916553497314e-01 -4.040000140666961670e-01 1.981599998474121094e+01
1.998600006103515625e+01 0.000000000000000000e+00 0.000000000000000000e+00 -2.080000042915344238e-01 2.017000007629394531e+01 0.000000000000000000e+00 -4.169999957084655762e-01 -4.050000011920928955e-01 1.990600013732910156e+01
1.998500061035156250e+01 0.000000000000000000e+00 0.000000000000000000e+00 -2.080000042915344238e-01 2.016799926757812500e+01 0.000000000000000000e+00 -4.169999957084655762e-01 -4.050000011920928955e-01 1.990399932861328125e+01
2.007799911499023438e+01 0.000000000000000000e+00 0.000000000000000000e+00 -2.090000063180923462e-01 2.026300048828125000e+01 0.000000000000000000e+00 -4.189999997615814209e-01 -4.070000052452087402e-01 1.999799919128417969e+01
1.995100021362304688e+01 0.000000000000000000e+00 0.000000000000000000e+00 -2.080000042915344238e-01 2.013500022888183594e+01 0.000000000000000000e+00 -4.160000085830688477e-01 -4.050000011920928955e-01 1.987100028991699219e+01
1.984199905395507812e+01 0.000000000000000000e+00 0.000000000000000000e+00 -2.070000022649765015e-01 2.002400016784667969e+01 0.000000000000000000e+00 -4.140000045299530029e-01 -4.029999971389770508e-01 1.976199913024902344e+01
1.967200088500976562e+01 0.000000000000000000e+00 0.000000000000000000e+00 -2.049999982118606567e-01 1.985300064086914062e+01 0.000000000000000000e+00 -4.099999964237213135e-01 -3.989999890327453613e-01 1.959300041198730469e+01
1.953499984741210938e+01 0.000000000000000000e+00 0.000000000000000000e+00 -2.029999941587448120e-01 1.971400070190429688e+01 0.000000000000000000e+00 -4.079999923706054688e-01 -3.959999978542327881e-01 1.945599937438964844e+01
1.977599906921386719e+01 0.000000000000000000e+00 0.000000000000000000e+00 -2.060000002384185791e-01 1.995800018310546875e+01 0.000000000000000000e+00 -4.129999876022338867e-01 -4.009999930858612061e-01 1.969599914550781250e+01
2.003800010681152344e+01 0.000000000000000000e+00 0.000000000000000000e+00 -2.090000063180923462e-01 2.022200012207031250e+01 0.000000000000000000e+00 -4.180000126361846924e-01 -4.059999883174896240e-01 1.995700073242187500e+01
1.799300003051757812e+01 0.000000000000000000e+00 0.000000000000000000e+00 -1.870000064373016357e-01 1.815800094604492188e+01 0.000000000000000000e+00 -3.750000000000000000e-01 -3.650000095367431641e-01 1.792000007629394531e+01
1.867900085449218750e+01 0.000000000000000000e+00 0.000000000000000000e+00 -1.949999928474426270e-01 1.885099983215332031e+01 0.000000000000000000e+00 -3.899999856948852539e-01 -3.790000081062316895e-01 1.860400009155273438e+01
1.923600006103515625e+01 0.000000000000000000e+00 0.000000000000000000e+00 -2.000000029802322388e-01 1.941300010681152344e+01 0.000000000000000000e+00 -4.009999930858612061e-01 -3.899999856948852539e-01 1.915900039672851562e+01
1.940399932861328125e+01 0.000000000000000000e+00 0.000000000000000000e+00 -2.020000070333480835e-01 1.958200073242187500e+01 0.000000000000000000e+00 -4.050000011920928955e-01 -3.939999938011169434e-01 1.932500076293945312e+01
1.984199905395507812e+01 0.000000000000000000e+00 0.000000000000000000e+00 -2.070000022649765015e-01 2.002499961853027344e+01 0.000000000000000000e+00 -4.140000045299530029e-01 -4.029999971389770508e-01 1.976199913024902344e+01
1.961300086975097656e+01 0.000000000000000000e+00 0.000000000000000000e+00 -2.039999961853027344e-01 1.979299926757812500e+01 0.000000000000000000e+00 -4.090000092983245850e-01 -3.980000019073486328e-01 1.953400039672851562e+01
1.949900054931640625e+01 0.000000000000000000e+00 0.000000000000000000e+00 -2.029999941587448120e-01 1.967900085449218750e+01 0.000000000000000000e+00 -4.070000052452087402e-01 -3.959999978542327881e-01 1.942099952697753906e+01
1.975099945068359375e+01 0.000000000000000000e+00 0.000000000000000000e+00 -2.060000002384185791e-01 1.993199920654296875e+01 0.000000000000000000e+00 -4.120000004768371582e-01 -4.009999930858612061e-01 1.967099952697753906e+01
1.956999969482421875e+01 0.000000000000000000e+00 0.000000000000000000e+00 -2.039999961853027344e-01 1.975000000000000000e+01 0.000000000000000000e+00 -4.079999923706054688e-01 -3.970000147819519043e-01 1.949099922180175781e+01
1.955699920654296875e+01 0.000000000000000000e+00 0.000000000000000000e+00 -2.039999961853027344e-01 1.973699951171875000e+01 0.000000000000000000e+00 -4.079999923706054688e-01 -3.970000147819519043e-01 1.947800064086914062e+01
1.983900070190429688e+01 0.000000000000000000e+00 0.000000000000000000e+00 -2.070000022649765015e-01 2.002099990844726562e+01 0.000000000000000000e+00 -4.140000045299530029e-01 -4.020000100135803223e-01 1.975900077819824219e+01
1.980200004577636719e+01 0.000000000000000000e+00 0.000000000000000000e+00 -2.060000002384185791e-01 1.998399925231933594e+01 0.000000000000000000e+00 -4.129999876022338867e-01 -4.020000100135803223e-01 1.972200012207031250e+01
1.993899917602539062e+01 0.000000000000000000e+00 0.000000000000000000e+00 -2.080000042915344238e-01 2.012199974060058594e+01 0.000000000000000000e+00 -4.160000085830688477e-01 -4.040000140666961670e-01 1.985799980163574219e+01
1.997900009155273438e+01 0.000000000000000000e+00 0.000000000000000000e+00 -2.080000042915344238e-01 2.016300010681152344e+01 0.000000000000000000e+00 -4.169999957084655762e-01 -4.050000011920928955e-01 1.989900016784667969e+01
1.726099967956542969e+01 0.000000000000000000e+00 0.000000000000000000e+00 1.780000030994415283e-01 1.772400093078613281e+01 0.000000000000000000e+00 2.669999897480010986e-01 1.490000039339065552e-01 1.807299995422363281e+01
1.762899971008300781e+01 0.000000000000000000e+00 0.000000000000000000e+00 1.819999963045120239e-01 1.810199928283691406e+01 0.000000000000000000e+00 2.730000019073486328e-01 1.519999951124191284e-01 1.845800018310546875e+01
1.795599937438964844e+01 0.000000000000000000e+00 0.000000000000000000e+00 1.860000044107437134e-01 1.843799972534179688e+01 0.000000000000000000e+00 2.779999971389770508e-01 1.550000011920928955e-01 1.879999923706054688e+01
1.783699989318847656e+01 0.000000000000000000e+00 0.000000000000000000e+00 1.840000003576278687e-01 1.831599998474121094e+01 0.000000000000000000e+00 2.759999930858612061e-01 1.539999991655349731e-01 1.867600059509277344e+01
1.835799980163574219e+01 0.000000000000000000e+00 0.000000000000000000e+00 1.899999976158142090e-01 1.885099983215332031e+01 0.000000000000000000e+00 2.840000092983245850e-01 1.589999943971633911e-01 1.922200012207031250e+01
1.828499984741210938e+01 0.000000000000000000e+00 0.000000000000000000e+00 1.889999955892562866e-01 1.877700042724609375e+01 0.000000000000000000e+00 2.829999923706054688e-01 1.580000072717666626e-01 1.914500045776367188e+01