-6.069317187500000000e+04
-6.062992187500000000e+04
-6.063155468750000000e+04
-6.063307812500000000e+04
-6.063394531250000000e+04
-6.063156640625000000e+04
-6.062712109375000000e+04
-6.062403515625000000e+04
-6.062712890625000000e+04
-6.062561328125000000e+04
-6.062081640625000000e+04
-6.062189062500000000e+04
-6.062663671875000000e+04
-6.062745703125000000e+04
-6.062733593750000000e+04
-6.062711718750000000e+04
-6.062660937500000000e+04
-6.062325781250000000e+04
-6.062520703125000000e+04
-6.062929296875000000e+04
-6.062858984375000000e+04
-6.062545703125000000e+04
-6.066219531250000000e+04
-6.065560546875000000e+04
-6.065146484375000000e+04
-6.063210156250000000e+04
-6.063555078125000000e+04
-6.063121093750000000e+04
-6.062884375000000000e+04
-6.063055468750000000e+04
-6.062656640625000000e+04
-6.062553515625000000e+04
-6.063138671875000000e+04
-6.062304687500000000e+04
-6.062703125000000000e+04
-6.062577734375000000e+04
-6.062408593750000000e+04
-6.062759765625000000e+04
-6.062761328125000000e+04
-6.063061328125000000e+04
-6.062740625000000000e+04
-6.062743750000000000e+04
-6.062698437500000000e+04
-6.062986328125000000e+04
-6.062683593750000000e+04
-6.069317187500000000e+04
-6.064264453125000000e+04
-6.062922265625000000e+04
-6.062212500000000000e+04
-6.061300781250000000e+04
-6.061993750000000000e+04
-6.062219921875000000e+04
-6.061887890625000000e+04
-6.061241796875000000e+04
-6.061602734375000000e+04
-6.061342578125000000e+04
-6.061058984375000000e+04
-6.060869531250000000e+04
-6.061468359375000000e+04
-6.061615625000000000e+04
-6.061488671875000000e+04
-6.061130078125000000e+04
-6.061481250000000000e+04
-6.061157031250000000e+04
-6.060752343750000000e+04
-6.061309765625000000e+04
-6.061425781250000000e+04
-6.060488671875000000e+04
-6.060734375000000000e+04
-6.060855859375000000e+04
-6.060507812500000000e+04
-6.060532812500000000e+04
-6.064446093750000000e+04
-6.062144140625000000e+04
-6.061884765625000000e+04
-6.061712500000000000e+04
-6.061241406250000000e+04
-6.061146484375000000e+04
-6.061052734375000000e+04
-6.061812109375000000e+04
-6.061603125000000000e+04
-6.061276171875000000e+04
-6.060426953125000000e+04
-6.060223046875000000e+04
-6.061134375000000000e+04
-6.060535156250000000e+04
-6.061038281250000000e+04
-6.061590234375000000e+04
-6.061034375000000000e+04
-6.060843750000000000e+04
-6.061012500000000000e+04
-6.061116015625000000e+04
-6.061232031250000000e+04
-6.069317187500000000e+04
-6.064728515625000000e+04
-6.060471875000000000e+04
-6.060544140625000000e+04
-6.060505859375000000e+04
-6.060296484375000000e+04
-6.060780078125000000e+04
-6.060554687500000000e+04
-6.060394531250000000e+04
-6.060167968750000000e+04
-6.059079296875000000e+04
-6.059703906250000000e+04
-6.059944140625000000e+04
-6.060407812500000000e+04
-6.060755468750000000e+04
-6.060555078125000000e+04
-6.059939062500000000e+04
-6.059813281250000000e+04
-6.065314843750000000e+04
-6.063006640625000000e+04
-6.060760546875000000e+04
-6.061206250000000000e+04
-6.059612500000000000e+04
-6.060777734375000000e+04
-6.060374609375000000e+04
-6.059762109375000000e+04
-6.060948828125000000e+04
-6.059912500000000000e+04
-6.059112890625000000e+04
-6.059108593750000000e+04
-6.058642968750000000e+04
-6.058017187500000000e+04
-6.069371093750000000e+04
-6.066117578125000000e+04
-6.065071093750000000e+04
-6.064451953125000000e+04
-6.062684765625000000e+04
-6.062975000000000000e+04
-6.063148046875000000e+04
-6.062533984375000000e+04
-6.062924218750000000e+04
-6.062809765625000000e+04
-6.062717578125000000e+04
-6.062776562500000000e+04
-6.062693750000000000e+04
-6.062743359375000000e+04
-6.062820703125000000e+04
-6.062288671875000000e+04
-6.063020703125000000e+04
-6.062275000000000000e+04
-6.062169531250000000e+04
-6.061933203125000000e+04
-6.062428515625000000e+04
-6.062774218750000000e+04
-6.062469531250000000e+04
-6.061945312500000000e+04
-6.061895703125000000e+04
-6.062656250000000000e+04
-6.065696875000000000e+04
-6.064929687500000000e+04
-6.064129296875000000e+04
-6.063653515625000000e+04
-6.063066406250000000e+04
-6.062760546875000000e+04
-6.063047265625000000e+04
-6.062755859375000000e+04
-6.062633593750000000e+04
-6.062405859375000000e+04
-6.062519140625000000e+04
-6.062358593750000000e+04
-6.062866015625000000e+04
-6.062817968750000000e+04
-6.062619140625000000e+04
-6.062353906250000000e+04
-6.062694531250000000e+04
-6.062494140625000000e+04
-6.062027734375000000e+04
-6.062485546875000000e+04
-6.062253515625000000e+04
-6.062416406250000000e+04
-6.062212109375000000e+04
-6.062137109375000000e+04
-6.062661718750000000e+04
-6.065488671875000000e+04
-6.064871093750000000e+04
-6.061533984375000000e+04
-6.061251171875000000e+04
-6.061407421875000000e+04
-6.061178906250000000e+04
-6.060670703125000000e+04
-6.060845703125000000e+04
-6.061209375000000000e+04
-6.061000390625000000e+04
-6.060848437500000000e+04
-6.060714453125000000e+04
-6.061414453125000000e+04
-6.061284375000000000e+04
-6.061295312500000000e+04
-6.061200781250000000e+04
-6.061296875000000000e+04
-6.060704296875000000e+04
-6.060487109375000000e+04
-6.065619921875000000e+04
-6.065012109375000000e+04
-6.063960546875000000e+04
-6.063237500000000000e+04
-6.062468750000000000e+04
-6.061598828125000000e+04
-6.061257812500000000e+04
-6.061622656250000000e+04
-6.060816015625000000e+04
-6.060591796875000000e+04
-6.061064843750000000e+04
-6.061146875000000000e+04
-6.061266015625000000e+04
-6.061873437500000000e+04
-6.061635156250000000e+04
-6.061699609375000000e+04
-6.060664062500000000e+04
-6.060906640625000000e+04
-6.061314062500000000e+04
-6.061335156250000000e+04
-6.061438281250000000e+04
-6.061440625000000000e+04
-6.060426171875000000e+04
-6.060473437500000000e+04
-6.060588281250000000e+04
-6.060448437500000000e+04
-6.060023437500000000e+04
-6.059411718750000000e+04
-6.059683203125000000e+04
-6.059078906250000000e+04
-6.060276953125000000e+04
-6.060086328125000000e+04
-6.060571875000000000e+04
-6.060202734375000000e+04
-6.059864062500000000e+04
-6.059923828125000000e+04
-6.059420703125000000e+04
-6.059416796875000000e+04
-6.058576171875000000e+04
-6.059529687500000000e+04
-6.058914843750000000e+04
-6.059108984375000000e+04
-6.059128125000000000e+04
-6.058648828125000000e+04
-6.069317968750000000e+04
-6.064194531250000000e+04
-6.063594531250000000e+04
-6.062506250000000000e+04
-6.062927343750000000e+04
-6.062976953125000000e+04
-6.063142578125000000e+04
-6.063154296875000000e+04
-6.062560937500000000e+04
-6.062643750000000000e+04
-6.062762500000000000e+04
-6.062896484375000000e+04
-6.062704687500000000e+04
-6.062467578125000000e+04
-6.062810937500000000e+04
-6.062827343750000000e+04
-6.062712890625000000e+04
-6.062487109375000000e+04
-6.062635937500000000e+04
-6.062816015625000000e+04
-6.062919531250000000e+04
-6.062772656250000000e+04
-6.062557421875000000e+04
-6.062845312500000000e+04
-6.062891796875000000e+04
-6.062244921875000000e+04
-6.062339453125000000e+04
-6.062337890625000000e+04
-6.062376562500000000e+04
-6.062835156250000000e+04
-6.069317968750000000e+04
-6.065876171875000000e+04
-6.064454296875000000e+04
-6.063399218750000000e+04
-6.062529687500000000e+04
-6.063036328125000000e+04
-6.063441406250000000e+04
-6.062650781250000000e+04
-6.062288671875000000e+04
-6.062680859375000000e+04
-6.062648828125000000e+04
-6.062521093750000000e+04
-6.062262109375000000e+04
-6.062481250000000000e+04
-6.062894921875000000e+04
-6.062597265625000000e+04
-6.063072265625000000e+04
-6.062707812500000000e+04
-6.062405859375000000e+04
-6.062140234375000000e+04
-6.062512890625000000e+04
-6.062288281250000000e+04
-6.062031640625000000e+04
-6.062707031250000000e+04
-6.062594531250000000e+04
-6.062185156250000000e+04
-6.062479296875000000e+04
-6.062617968750000000e+04
-6.062111328125000000e+04
-6.069317968750000000e+04
-6.064183593750000000e+04
-6.063508203125000000e+04
-6.062748437500000000e+04
-6.061344531250000000e+04
-6.061928906250000000e+04
-6.061845312500000000e+04
-6.061517968750000000e+04
-6.061293750000000000e+04
-6.061762500000000000e+04
-6.061581250000000000e+04
-6.061385937500000000e+04
-6.061014843750000000e+04
-6.061361328125000000e+04
-6.061630468750000000e+04
-6.061280078125000000e+04
-6.061223437500000000e+04
-6.061269921875000000e+04
-6.061461718750000000e+04
-6.061310546875000000e+04
-6.061066796875000000e+04
-6.060786328125000000e+04
-6.069317968750000000e+04
-6.063283203125000000e+04
-6.061341796875000000e+04
-6.061093359375000000e+04
-6.061052343750000000e+04
-6.061066796875000000e+04
-6.060758593750000000e+04
-6.060783593750000000e+04
-6.061092578125000000e+04
-6.060949609375000000e+04
-6.060646875000000000e+04
-6.060721875000000000e+04
-6.061408593750000000e+04
-6.061110156250000000e+04
-6.061238671875000000e+04
-6.061590234375000000e+04
-6.061334765625000000e+04
-6.061617968750000000e+04
-6.061439062500000000e+04
-6.061033984375000000e+04
-6.069317968750000000e+04
-6.065135156250000000e+04
-6.064321875000000000e+04
-6.062776171875000000e+04
-6.061368359375000000e+04
-6.060149609375000000e+04
-6.060242968750000000e+04
-6.060251953125000000e+04
-6.060368750000000000e+04
-6.059955468750000000e+04
-6.060099609375000000e+04
-6.059429687500000000e+04
-6.059103125000000000e+04
-6.058519531250000000e+04
-6.059694921875000000e+04
-6.059657421875000000e+04
-6.059521093750000000e+04
-6.058840234375000000e+04
-6.059048828125000000e+04
-6.058706250000000000e+04
-6.058697656250000000e+04
-6.069317968750000000e+04
-6.064827734375000000e+04
-6.063557031250000000e+04
-6.060323828125000000e+04
-6.060570312500000000e+04
-6.060033203125000000e+04
-6.059951953125000000e+04
-6.060410937500000000e+04
-6.060349218750000000e+04
-6.060430468750000000e+04
-6.060407421875000000e+04
-6.060298828125000000e+04
-6.059447265625000000e+04
-6.059542187500000000e+04
-6.059552343750000000e+04
-6.059502734375000000e+04
-6.060122656250000000e+04
-6.060553906250000000e+04
-6.060401171875000000e+04
-6.059884765625000000e+04
-6.059192578125000000e+04
-6.058947265625000000e+04
-6.069245312500000000e+04
-6.065888671875000000e+04
-6.063546484375000000e+04
-6.062732812500000000e+04
-6.063031250000000000e+04
-6.062786718750000000e+04
-6.062660937500000000e+04
-6.062729687500000000e+04
-6.062716406250000000e+04
-6.062419140625000000e+04
-6.062682031250000000e+04
-6.062580468750000000e+04
-6.063251562500000000e+04
-6.063023437500000000e+04
-6.062680859375000000e+04
-6.062517968750000000e+04
-6.062088671875000000e+04
-6.062037500000000000e+04
-6.062045703125000000e+04
-6.062615625000000000e+04
-6.062737890625000000e+04
-6.062503515625000000e+04
-6.063001953125000000e+04
-6.062517187500000000e+04
-6.062372656250000000e+04
-6.065198046875000000e+04
-6.062711328125000000e+04
-6.063279296875000000e+04
-6.063289453125000000e+04
-6.062806250000000000e+04
-6.062494921875000000e+04
-6.062642968750000000e+04
-6.062761718750000000e+04
-6.062306250000000000e+04
-6.062066015625000000e+04
-6.062557421875000000e+04
-6.062100781250000000e+04
-6.062666015625000000e+04
-6.062175390625000000e+04
-6.062587500000000000e+04
-6.063019140625000000e+04
-6.062671875000000000e+04
-6.062889062500000000e+04
-6.062357812500000000e+04
-6.062800000000000000e+04
-6.062434765625000000e+04
-6.062337109375000000e+04
-6.069245312500000000e+04
-6.061587500000000000e+04
-6.062551171875000000e+04
-6.062737500000000000e+04
-6.061892578125000000e+04
-6.061139843750000000e+04
-6.061297265625000000e+04
-6.060951171875000000e+04
-6.061613281250000000e+04
-6.061323046875000000e+04
-6.061167578125000000e+04
-6.061281640625000000e+04
-6.061213281250000000e+04
-6.061339843750000000e+04
-6.061550781250000000e+04
-6.061562500000000000e+04
-6.061387890625000000e+04
-6.061110546875000000e+04
-6.060964453125000000e+04
-6.061585937500000000e+04
-6.069245312500000000e+04
-6.063963281250000000e+04
-6.061487109375000000e+04
-6.061369140625000000e+04
-6.061869140625000000e+04
-6.061514843750000000e+04
-6.061732421875000000e+04
-6.061910156250000000e+04
-6.061357421875000000e+04
-6.061710937500000000e+04
-6.061658203125000000e+04
-6.061887109375000000e+04
-6.061289843750000000e+04
-6.061595703125000000e+04
-6.061178515625000000e+04
-6.061081250000000000e+04
-6.061458984375000000e+04
-6.061409375000000000e+04
-6.060871093750000000e+04
-6.061435546875000000e+04
-6.061505859375000000e+04
-6.061249218750000000e+04
-6.060972265625000000e+04
-6.069245312500000000e+04
-6.064854687500000000e+04
-6.060460937500000000e+04
-6.060841796875000000e+04
-6.061514062500000000e+04
-6.059749609375000000e+04
-6.059661718750000000e+04
-6.059624609375000000e+04
-6.059587500000000000e+04
-6.059297656250000000e+04
-6.059856250000000000e+04
-6.060230859375000000e+04
-6.059930468750000000e+04
-6.059617187500000000e+04
-6.059947656250000000e+04
-6.059488281250000000e+04
-6.059408593750000000e+04
-6.059821093750000000e+04
-6.058757031250000000e+04
-6.064537500000000000e+04
-6.063766796875000000e+04
-6.061046093750000000e+04
-6.061008984375000000e+04
-6.060996484375000000e+04
-6.060389453125000000e+04
-6.060675781250000000e+04
-6.059647656250000000e+04
-6.059978125000000000e+04
-6.060186328125000000e+04
-6.060639843750000000e+04
-6.060250781250000000e+04
-6.060144531250000000e+04
-6.060439843750000000e+04
-6.060037890625000000e+04
-6.060403515625000000e+04
-6.060511328125000000e+04
-6.060485546875000000e+04
-6.060622265625000000e+04
-6.060686718750000000e+04
-6.060206250000000000e+04
-6.059520312500000000e+04
-6.059349218750000000e+04
-6.059160156250000000e+04
-6.059656640625000000e+04
-6.059308984375000000e+04
-6.065270703125000000e+04
-6.062386328125000000e+04
-6.062291406250000000e+04
-6.062630078125000000e+04
-6.062466015625000000e+04
-6.061906640625000000e+04
-6.062288671875000000e+04
-6.062586718750000000e+04
-6.062339453125000000e+04
-6.061992968750000000e+04
-6.062679687500000000e+04
-6.062735156250000000e+04
-6.062398828125000000e+04
-6.062529296875000000e+04
-6.062631640625000000e+04
-6.062503906250000000e+04
-6.061945312500000000e+04
-6.062074218750000000e+04
-6.062109375000000000e+04
-6.062588281250000000e+04
-6.062547265625000000e+04
-6.062491406250000000e+04
-6.062333593750000000e+04
-6.069468359375000000e+04
-6.066122265625000000e+04
-6.065528125000000000e+04
-6.063708203125000000e+04
-6.062905078125000000e+04
-6.062254296875000000e+04
-6.062427734375000000e+04
-6.063208593750000000e+04
-6.061984375000000000e+04
-6.061983984375000000e+04
-6.062892187500000000e+04
-6.062955078125000000e+04
-6.062955078125000000e+04
-6.062593359375000000e+04
-6.062798046875000000e+04
-6.062582421875000000e+04
-6.061664843750000000e+04
-6.062235156250000000e+04
-6.061903515625000000e+04
-6.062157031250000000e+04
-6.062514453125000000e+04
-6.062733593750000000e+04
-6.062400000000000000e+04
-6.062274609375000000e+04
-6.062013281250000000e+04
-6.062800390625000000e+04
-6.062917968750000000e+04
-6.069468359375000000e+04
-6.065696875000000000e+04
-6.061854296875000000e+04
-6.061319140625000000e+04
-6.061183593750000000e+04
-6.061915234375000000e+04
-6.061251562500000000e+04
-6.061173828125000000e+04
-6.061278906250000000e+04
-6.060687109375000000e+04
-6.060432421875000000e+04
-6.060399609375000000e+04
-6.060319140625000000e+04
-6.060557812500000000e+04
-6.061066796875000000e+04
-6.060780468750000000e+04
-6.060950000000000000e+04
-6.061039843750000000e+04
-6.061079296875000000e+04
-6.060962890625000000e+04
-6.060775390625000000e+04
-6.060733984375000000e+04
-6.060728515625000000e+04
-6.069468359375000000e+04
-6.065083984375000000e+04
-6.062725781250000000e+04
-6.061845312500000000e+04
-6.061584375000000000e+04
-6.061262890625000000e+04
-6.061475390625000000e+04
-6.061250000000000000e+04
-6.061711718750000000e+04
-6.061982812500000000e+04
-6.061425781250000000e+04
-6.061038671875000000e+04
-6.061373437500000000e+04
-6.061176562500000000e+04
-6.062093750000000000e+04
-6.061092578125000000e+04
-6.060988281250000000e+04
-6.060668750000000000e+04
-6.060921875000000000e+04
-6.061455078125000000e+04
-6.061573046875000000e+04
-6.061530859375000000e+04
-6.061005468750000000e+04
-6.061026171875000000e+04
-6.069468359375000000e+04
-6.063823828125000000e+04
-6.063000781250000000e+04
-6.061958593750000000e+04
-6.061053125000000000e+04
-6.060487500000000000e+04
-6.060255078125000000e+04
-6.060046484375000000e+04
-6.060003515625000000e+04
-6.059237890625000000e+04
-6.059397265625000000e+04
-6.059310546875000000e+04
-6.059487109375000000e+04
-6.059454296875000000e+04
-6.059858593750000000e+04
-6.058795312500000000e+04
-6.058593750000000000e+04
-6.059094140625000000e+04
-6.059123437500000000e+04
-6.069468359375000000e+04
-6.065101171875000000e+04
-6.062785156250000000e+04
-6.062239843750000000e+04
-6.061536328125000000e+04
-6.060717578125000000e+04
-6.060407031250000000e+04
-6.060194140625000000e+04
-6.060030078125000000e+04
-6.060969531250000000e+04
-6.059873828125000000e+04
-6.059694140625000000e+04
-6.059990625000000000e+04
-6.059873046875000000e+04
-6.058984765625000000e+04
-6.059050781250000000e+04
-6.059282812500000000e+04
-6.059403906250000000e+04
-6.059790234375000000e+04
-6.060384765625000000e+04
-6.059548437500000000e+04
-6.058976171875000000e+04
-6.058902343750000000e+04
-6.058760937500000000e+04
-6.065999218750000000e+04
-6.065323828125000000e+04
-6.063781250000000000e+04
-6.062412890625000000e+04
-6.062681250000000000e+04
-6.062507421875000000e+04
-6.062164453125000000e+04
-6.062198828125000000e+04
-6.062374609375000000e+04
-6.062309375000000000e+04
-6.062617578125000000e+04
-6.062167578125000000e+04
-6.061909765625000000e+04
-6.062427734375000000e+04
-6.062583593750000000e+04
-6.062605078125000000e+04
-6.062430468750000000e+04
-6.062285156250000000e+04
-6.061704296875000000e+04
-6.061788671875000000e+04
-6.062358203125000000e+04
-6.062584765625000000e+04
-6.062216796875000000e+04
-6.062077734375000000e+04
-6.062100390625000000e+04
-6.062254687500000000e+04
-6.069146875000000000e+04
-6.065731640625000000e+04
-6.065399609375000000e+04
-6.064480078125000000e+04
-6.062982812500000000e+04
-6.062798046875000000e+04
-6.062928515625000000e+04
-6.062601953125000000e+04
-6.062307812500000000e+04
-6.062382421875000000e+04
-6.062901953125000000e+04
-6.063060937500000000e+04
-6.062148437500000000e+04
-6.062579687500000000e+04
-6.062780078125000000e+04
-6.062784765625000000e+04
-6.062476171875000000e+04
-6.062084765625000000e+04
-6.062637109375000000e+04
-6.062851171875000000e+04
-6.062903125000000000e+04
-6.062432031250000000e+04
-6.062073437500000000e+04
-6.062026953125000000e+04
-6.062515234375000000e+04
-6.062470312500000000e+04
-6.061976562500000000e+04
-6.061932031250000000e+04
-6.061930468750000000e+04
-6.061827734375000000e+04
-6.062266796875000000e+04
-6.062351562500000000e+04
-6.062081250000000000e+04
-6.069146875000000000e+04
-6.065408984375000000e+04
-6.064928515625000000e+04
-6.064071484375000000e+04
-6.061367578125000000e+04
-6.061505468750000000e+04
-6.061399609375000000e+04
-6.061369921875000000e+04
-6.061037890625000000e+04
-6.061315625000000000e+04
-6.060896484375000000e+04
-6.061355078125000000e+04
-6.061124609375000000e+04
-6.061162109375000000e+04
-6.061940234375000000e+04
-6.061736718750000000e+04
-6.061618750000000000e+04
-6.061548437500000000e+04
-6.061676953125000000e+04
-6.062058203125000000e+04
-6.061756250000000000e+04
-6.061625781250000000e+04
-6.060869140625000000e+04
-6.061628906250000000e+04
-6.061362500000000000e+04
-6.060658593750000000e+04
-6.060891406250000000e+04
-6.061974609375000000e+04
-6.065530859375000000e+04
-6.064900000000000000e+04
-6.062521875000000000e+04
-6.060996484375000000e+04
-6.060905468750000000e+04
-6.061592578125000000e+04
-6.061581640625000000e+04
-6.061424609375000000e+04
-6.060610546875000000e+04
-6.061414843750000000e+04
-6.061203515625000000e+04
-6.061066406250000000e+04
-6.060755078125000000e+04
-6.060815625000000000e+04
-6.061516406250000000e+04
-6.061367187500000000e+04
-6.060200781250000000e+04
-6.060383203125000000e+04
-6.060789453125000000e+04
-6.060682421875000000e+04
-6.061431250000000000e+04
-6.060521484375000000e+04
-6.060771093750000000e+04
-6.069146875000000000e+04
-6.063282812500000000e+04
-6.061666406250000000e+04
-6.059961718750000000e+04
-6.060047656250000000e+04
-6.060358593750000000e+04
-6.060719140625000000e+04
-6.059643750000000000e+04
-6.059333593750000000e+04
-6.060116015625000000e+04
-6.060189843750000000e+04
-6.060661328125000000e+04
-6.059733203125000000e+04
-6.060089843750000000e+04
-6.060505468750000000e+04
-6.060877734375000000e+04
-6.059862890625000000e+04
-6.059408203125000000e+04
-6.060668359375000000e+04
-6.060565234375000000e+04
-6.060074609375000000e+04
-6.058957031250000000e+04
-6.059279296875000000e+04
-6.069146875000000000e+04
-6.065016796875000000e+04
-6.063653515625000000e+04
-6.060553515625000000e+04
-6.059891796875000000e+04
-6.060241406250000000e+04
-6.060880468750000000e+04
-6.059868359375000000e+04
-6.059567968750000000e+04
-6.059480078125000000e+04
-6.059737890625000000e+04
-6.059383593750000000e+04
-6.059673046875000000e+04
-6.059461328125000000e+04
-6.059750390625000000e+04
-6.059287500000000000e+04
-6.058957031250000000e+04
-6.058615234375000000e+04
-6.058200000000000000e+04
-6.065889453125000000e+04
-6.064703515625000000e+04
-6.063555859375000000e+04
-6.063030078125000000e+04
-6.062794140625000000e+04
-6.062639453125000000e+04
-6.062167968750000000e+04
-6.062539062500000000e+04
-6.062826171875000000e+04
-6.062182812500000000e+04
-6.062002343750000000e+04
-6.062303906250000000e+04
-6.062137109375000000e+04
-6.062182812500000000e+04
-6.062073437500000000e+04
-6.061862890625000000e+04
-6.061654296875000000e+04
-6.062215234375000000e+04
-6.061824609375000000e+04
-6.062820703125000000e+04
-6.062298828125000000e+04
-6.062174609375000000e+04
-6.062057031250000000e+04
-6.061903125000000000e+04
-6.061663671875000000e+04
-6.061624218750000000e+04
-6.062361328125000000e+04
-6.065442968750000000e+04
-6.064725000000000000e+04
-6.062945703125000000e+04
-6.062602734375000000e+04
-6.062371484375000000e+04
-6.062879687500000000e+04
-6.062719531250000000e+04
-6.062205078125000000e+04
-6.062285156250000000e+04
-6.062521875000000000e+04
-6.063268359375000000e+04
-6.062653906250000000e+04
-6.062493359375000000e+04
-6.062523046875000000e+04
-6.062623437500000000e+04
-6.062523437500000000e+04
-6.062485937500000000e+04
-6.062509375000000000e+04
-6.062890625000000000e+04
-6.062918750000000000e+04
-6.062270703125000000e+04
-6.062505859375000000e+04
-6.062414843750000000e+04
-6.062322265625000000e+04
-6.062176562500000000e+04
-6.062123046875000000e+04
-6.065636718750000000e+04
-6.063682421875000000e+04
-6.061463281250000000e+04
-6.061276562500000000e+04
-6.061551562500000000e+04
-6.061273437500000000e+04
-6.061761328125000000e+04
-6.061455468750000000e+04
-6.061382031250000000e+04
-6.061514062500000000e+04
-6.061747656250000000e+04
-6.061822656250000000e+04
-6.061365234375000000e+04
-6.061579687500000000e+04
-6.061733593750000000e+04
-6.061835546875000000e+04
-6.061239453125000000e+04
-6.060732421875000000e+04
-6.061388281250000000e+04
-6.061520312500000000e+04
-6.061393359375000000e+04
-6.061413671875000000e+04
-6.061237890625000000e+04
-6.061192968750000000e+04
-6.060925781250000000e+04
-6.061059375000000000e+04
-6.065818359375000000e+04
-6.064871875000000000e+04
-6.064466796875000000e+04
-6.061611718750000000e+04
-6.061418750000000000e+04
-6.061559765625000000e+04
-6.061248828125000000e+04
-6.061539843750000000e+04
-6.061245312500000000e+04
-6.061228125000000000e+04
-6.061264062500000000e+04
-6.060851953125000000e+04
-6.060489843750000000e+04
-6.060793359375000000e+04
-6.060932031250000000e+04
-6.060678515625000000e+04
-6.060880859375000000e+04
-6.060939062500000000e+04
-6.060710156250000000e+04
-6.060369531250000000e+04
-6.060572265625000000e+04
-6.060626171875000000e+04
-6.061095312500000000e+04
-6.061234765625000000e+04
-6.060569921875000000e+04
-6.060111718750000000e+04
-6.069343359375000000e+04
-6.065303125000000000e+04
-6.062467968750000000e+04
-6.061737890625000000e+04
-6.059438281250000000e+04
-6.059319140625000000e+04
-6.059495703125000000e+04
-6.059186718750000000e+04
-6.059183203125000000e+04
-6.059605859375000000e+04
-6.059917187500000000e+04
-6.059312109375000000e+04
-6.058637500000000000e+04
-6.058930468750000000e+04
-6.058992187500000000e+04
-6.069343359375000000e+04
-6.065187109375000000e+04
-6.063562890625000000e+04
-6.060900781250000000e+04
-6.060228906250000000e+04
-6.060389453125000000e+04
-6.060517968750000000e+04
-6.060095312500000000e+04
-6.060943750000000000e+04
-6.060651953125000000e+04
-6.060355078125000000e+04
-6.059941015625000000e+04
-6.059250000000000000e+04
-6.059562109375000000e+04
-6.058754687500000000e+04
-6.059033593750000000e+04
-6.059126171875000000e+04
-6.059135156250000000e+04
-6.059496875000000000e+04
-6.058577734375000000e+04
-6.058985156250000000e+04
-6.059194140625000000e+04
-6.059551562500000000e+04
-6.058559765625000000e+04
-6.069248437500000000e+04
-6.065414453125000000e+04
-6.063900000000000000e+04
-6.063276171875000000e+04
-6.063175390625000000e+04
-6.063360937500000000e+04
-6.062693750000000000e+04
-6.062607421875000000e+04
-6.062830468750000000e+04
-6.063219921875000000e+04
-6.062925781250000000e+04
-6.062110937500000000e+04
-6.062533984375000000e+04
-6.062613281250000000e+04
-6.062525390625000000e+04
-6.062202343750000000e+04
-6.062559765625000000e+04
-6.062590234375000000e+04
-6.062552343750000000e+04
-6.062739843750000000e+04
-6.062726562500000000e+04
-6.062927343750000000e+04
-6.062564843750000000e+04
-6.062121093750000000e+04
-6.069248437500000000e+04
-6.065925000000000000e+04
-6.063108593750000000e+04
-6.062686718750000000e+04
-6.062964843750000000e+04
-6.063167578125000000e+04
-6.062674609375000000e+04
-6.062897265625000000e+04
-6.062517968750000000e+04
-6.062758984375000000e+04
-6.062311718750000000e+04
-6.062175390625000000e+04
-6.061968750000000000e+04
-6.062030468750000000e+04
-6.062180859375000000e+04
-6.062394921875000000e+04
-6.062571484375000000e+04
-6.062044531250000000e+04
-6.062956250000000000e+04
-6.063115234375000000e+04
-6.062949218750000000e+04
-6.062573828125000000e+04
-6.069248437500000000e+04
-6.065448437500000000e+04
-6.062791796875000000e+04
-6.061748046875000000e+04
-6.061442187500000000e+04
-6.061776953125000000e+04
-6.060982812500000000e+04
-6.061251953125000000e+04
-6.061210937500000000e+04
-6.061428515625000000e+04
-6.060926562500000000e+04
-6.060955078125000000e+04
-6.060744921875000000e+04
-6.061179296875000000e+04
-6.061371093750000000e+04
-6.061246875000000000e+04
-6.061178125000000000e+04
-6.061521093750000000e+04
-6.069248437500000000e+04
-6.065106250000000000e+04
-6.061439062500000000e+04
-6.061294921875000000e+04
-6.061162109375000000e+04
-6.061477343750000000e+04
-6.060850781250000000e+04
-6.060908984375000000e+04
-6.061437109375000000e+04
-6.061648437500000000e+04
-6.061269921875000000e+04
-6.061718750000000000e+04
-6.061956640625000000e+04
-6.061683203125000000e+04
-6.061617968750000000e+04
-6.061812500000000000e+04
-6.061660156250000000e+04
-6.061216406250000000e+04
-6.061192968750000000e+04
-6.061626562500000000e+04
-6.060837109375000000e+04
-6.061038671875000000e+04
-6.060683203125000000e+04
-6.060892187500000000e+04
-6.061035937500000000e+04
-6.060139843750000000e+04
-6.062492187500000000e+04
-6.061125390625000000e+04
-6.060751562500000000e+04
-6.059995703125000000e+04
-6.059842968750000000e+04
-6.059951953125000000e+04
-6.060215234375000000e+04
-6.060416406250000000e+04
-6.060852734375000000e+04
-6.060433984375000000e+04
-6.060492968750000000e+04
-6.059884765625000000e+04
-6.060118750000000000e+04
-6.059439843750000000e+04
-6.059466015625000000e+04
-6.059148046875000000e+04
-6.059037890625000000e+04
-6.059018750000000000e+04
-6.059061718750000000e+04
-6.058848046875000000e+04
-6.058843359375000000e+04
-6.069248437500000000e+04
-6.062804687500000000e+04
-6.060861718750000000e+04
-6.060208203125000000e+04
-6.059579296875000000e+04
-6.059080078125000000e+04
-6.059310546875000000e+04
-6.058776953125000000e+04
-6.058666015625000000e+04
-6.058771484375000000e+04
-6.058554296875000000e+04
-6.058996093750000000e+04
-6.065560156250000000e+04
-6.062810546875000000e+04
-6.063357812500000000e+04
-6.061986718750000000e+04
-6.062296093750000000e+04
-6.062595703125000000e+04
-6.062308984375000000e+04
-6.062669921875000000e+04
-6.062297656250000000e+04
-6.062428515625000000e+04
-6.062315625000000000e+04
-6.061801953125000000e+04
-6.061999609375000000e+04
-6.062395703125000000e+04
-6.062489062500000000e+04
-6.062449609375000000e+04
-6.062122265625000000e+04
-6.061884375000000000e+04
-6.061843359375000000e+04
-6.069444921875000000e+04
-6.065891015625000000e+04
-6.065191015625000000e+04
-6.063457812500000000e+04
-6.062910937500000000e+04
-6.062971093750000000e+04
-6.062743359375000000e+04
-6.062573046875000000e+04
-6.062645703125000000e+04
-6.062515234375000000e+04
-6.062661718750000000e+04
-6.062705859375000000e+04
-6.062404687500000000e+04
-6.062687109375000000e+04
-6.062391015625000000e+04
-6.062538281250000000e+04
-6.062313281250000000e+04
-6.062617578125000000e+04
-6.062002734375000000e+04
-6.061871875000000000e+04
-6.062419531250000000e+04
-6.065710156250000000e+04
-6.065337500000000000e+04
-6.062844531250000000e+04
-6.062130078125000000e+04
-6.061299609375000000e+04
-6.061373437500000000e+04
-6.061514453125000000e+04
-6.061555078125000000e+04
-6.061285156250000000e+04
-6.061136328125000000e+04
-6.061105078125000000e+04
-6.061107421875000000e+04
-6.061328125000000000e+04
-6.061123046875000000e+04
-6.061650781250000000e+04
-6.061940625000000000e+04
-6.061627343750000000e+04
-6.061591406250000000e+04
-6.060939062500000000e+04
-6.061229687500000000e+04
-6.061585937500000000e+04
-6.061772656250000000e+04
-6.061440625000000000e+04
-6.061819921875000000e+04
-6.061551953125000000e+04
-6.061176562500000000e+04
-6.061173828125000000e+04
-6.061242187500000000e+04
-6.065789453125000000e+04
-6.064970312500000000e+04
-6.064233593750000000e+04
-6.063997656250000000e+04
-6.061169921875000000e+04
-6.061326562500000000e+04
-6.062105468750000000e+04
-6.061172656250000000e+04