-6.089221875000000000e+04
-6.087601171875000000e+04
-6.087536328125000000e+04
-6.087470703125000000e+04
-6.087283984375000000e+04
-6.087321875000000000e+04
-6.087516796875000000e+04
-6.087377343750000000e+04
-6.087383984375000000e+04
-6.087272656250000000e+04
-6.087259765625000000e+04
-6.087317968750000000e+04
-6.087535546875000000e+04
-6.087444921875000000e+04
-6.087355078125000000e+04
-6.087292187500000000e+04
-6.087447656250000000e+04
-6.087385546875000000e+04
-6.087354296875000000e+04
-6.087339453125000000e+04
-6.087207812500000000e+04
-6.087230468750000000e+04
-6.087294531250000000e+04
-6.087342187500000000e+04
-6.087468750000000000e+04
-6.087438671875000000e+04
-6.087305468750000000e+04
-6.087364062500000000e+04
-6.087419921875000000e+04
-6.087413281250000000e+04
-6.087278906250000000e+04
-6.087225000000000000e+04
-6.087281640625000000e+04
-6.087087109375000000e+04
-6.087238281250000000e+04
-6.087135156250000000e+04
-6.087108593750000000e+04
-6.087169921875000000e+04
-6.087180859375000000e+04
-6.087326562500000000e+04
-6.087279296875000000e+04
-6.087421484375000000e+04
-6.087346875000000000e+04
-6.087404296875000000e+04
-6.087231250000000000e+04
-6.089221875000000000e+04
-6.087173828125000000e+04
-6.086707031250000000e+04
-6.086355468750000000e+04
-6.086045703125000000e+04
-6.085858593750000000e+04
-6.085350000000000000e+04
-6.085648437500000000e+04
-6.085973437500000000e+04
-6.085769921875000000e+04
-6.085951171875000000e+04
-6.085539843750000000e+04
-6.085694531250000000e+04
-6.085766015625000000e+04
-6.085637890625000000e+04
-6.085456640625000000e+04
-6.085515625000000000e+04
-6.085522656250000000e+04
-6.085621484375000000e+04
-6.085987109375000000e+04
-6.085702734375000000e+04
-6.085664062500000000e+04
-6.085704296875000000e+04
-6.085573046875000000e+04
-6.085813671875000000e+04
-6.085655859375000000e+04
-6.085742187500000000e+04
-6.085725390625000000e+04
-6.085841406250000000e+04
-6.085603515625000000e+04
-6.085678125000000000e+04
-6.085688671875000000e+04
-6.085837500000000000e+04
-6.085805468750000000e+04
-6.085716015625000000e+04
-6.085633203125000000e+04
-6.085773437500000000e+04
-6.085500781250000000e+04
-6.085568359375000000e+04
-6.085906250000000000e+04
-6.085805468750000000e+04
-6.085602734375000000e+04
-6.085630468750000000e+04
-6.085561328125000000e+04
-6.085591796875000000e+04
-6.089221875000000000e+04
-6.086481640625000000e+04
-6.085168359375000000e+04
-6.084839453125000000e+04
-6.084409375000000000e+04
-6.084226953125000000e+04
-6.084049609375000000e+04
-6.083819921875000000e+04
-6.084036328125000000e+04
-6.083738281250000000e+04
-6.083426562500000000e+04
-6.083745312500000000e+04
-6.084071093750000000e+04
-6.083823828125000000e+04
-6.083802734375000000e+04
-6.083714453125000000e+04
-6.083662890625000000e+04
-6.083516406250000000e+04
-6.083732812500000000e+04
-6.083648437500000000e+04
-6.083751953125000000e+04
-6.083784375000000000e+04
-6.083874218750000000e+04
-6.083326953125000000e+04
-6.083014453125000000e+04
-6.083275390625000000e+04
-6.083730468750000000e+04
-6.083782031250000000e+04
-6.083608203125000000e+04
-6.083672265625000000e+04
-6.083814843750000000e+04
-6.083839453125000000e+04
-6.084007031250000000e+04
-6.084070703125000000e+04
-6.083742968750000000e+04
-6.083558984375000000e+04
-6.083940234375000000e+04
-6.084225000000000000e+04
-6.083747265625000000e+04
-6.083739843750000000e+04
-6.083833593750000000e+04
-6.083845703125000000e+04
-6.083616015625000000e+04
-6.083406640625000000e+04
-6.089201171875000000e+04
-6.088012890625000000e+04
-6.087671875000000000e+04
-6.087325781250000000e+04
-6.087357812500000000e+04
-6.087406250000000000e+04
-6.087510156250000000e+04
-6.087396484375000000e+04
-6.087381640625000000e+04
-6.087345312500000000e+04
-6.087217968750000000e+04
-6.087089062500000000e+04
-6.087050781250000000e+04
-6.087294921875000000e+04
-6.087285546875000000e+04
-6.087346093750000000e+04
-6.087099609375000000e+04
-6.087225390625000000e+04
-6.087248828125000000e+04
-6.087216796875000000e+04
-6.087227734375000000e+04
-6.087237109375000000e+04
-6.087198046875000000e+04
-6.087207812500000000e+04
-6.087194921875000000e+04
-6.087284375000000000e+04
-6.087389843750000000e+04
-6.087241015625000000e+04
-6.087355078125000000e+04
-6.087161718750000000e+04
-6.087241406250000000e+04
-6.087271093750000000e+04
-6.087274218750000000e+04
-6.087283984375000000e+04
-6.087359765625000000e+04
-6.087264843750000000e+04
-6.087219531250000000e+04
-6.087212890625000000e+04
-6.087402343750000000e+04
-6.087233984375000000e+04
-6.087322265625000000e+04
-6.087273437500000000e+04
-6.087396484375000000e+04
-6.087339062500000000e+04
-6.087372265625000000e+04
-6.087343359375000000e+04
-6.087199218750000000e+04
-6.087307812500000000e+04
-6.087317578125000000e+04
-6.087310937500000000e+04
-6.086644921875000000e+04
-6.086406250000000000e+04
-6.086050000000000000e+04
-6.085589062500000000e+04
-6.085563671875000000e+04
-6.085640625000000000e+04
-6.085989453125000000e+04
-6.085904687500000000e+04
-6.085492968750000000e+04
-6.085535546875000000e+04
-6.085562890625000000e+04
-6.085575000000000000e+04
-6.085635937500000000e+04
-6.085715234375000000e+04
-6.085780468750000000e+04
-6.085942187500000000e+04
-6.085886328125000000e+04
-6.085812109375000000e+04
-6.085729687500000000e+04
-6.085455859375000000e+04
-6.085587500000000000e+04
-6.085489062500000000e+04
-6.085696875000000000e+04
-6.085813671875000000e+04
-6.085602734375000000e+04
-6.085788281250000000e+04
-6.085712109375000000e+04
-6.085535546875000000e+04
-6.085714062500000000e+04
-6.085699218750000000e+04
-6.085652734375000000e+04
-6.085915625000000000e+04
-6.085965625000000000e+04
-6.086171875000000000e+04
-6.085883593750000000e+04
-6.085815625000000000e+04
-6.085651171875000000e+04
-6.085892187500000000e+04
-6.085679296875000000e+04
-6.085632812500000000e+04
-6.089201171875000000e+04
-6.086509765625000000e+04
-6.085863671875000000e+04
-6.085094531250000000e+04
-6.084538281250000000e+04
-6.084075390625000000e+04
-6.083570703125000000e+04
-6.083273828125000000e+04
-6.083330078125000000e+04
-6.083640625000000000e+04
-6.083683593750000000e+04
-6.084005078125000000e+04
-6.083944140625000000e+04
-6.083826562500000000e+04
-6.083694531250000000e+04
-6.083487890625000000e+04
-6.083562890625000000e+04
-6.083679296875000000e+04
-6.083564453125000000e+04
-6.083726171875000000e+04
-6.083406640625000000e+04
-6.083498437500000000e+04
-6.084040234375000000e+04
-6.084021484375000000e+04
-6.083495703125000000e+04
-6.083513671875000000e+04
-6.083781250000000000e+04
-6.083821093750000000e+04
-6.084015625000000000e+04
-6.083805468750000000e+04
-6.083516796875000000e+04
-6.083447656250000000e+04
-6.083660937500000000e+04
-6.083853906250000000e+04
-6.084112500000000000e+04
-6.083680468750000000e+04
-6.083769531250000000e+04
-6.083834375000000000e+04
-6.089219140625000000e+04
-6.087874218750000000e+04
-6.087810156250000000e+04
-6.087380859375000000e+04
-6.087310937500000000e+04
-6.087362109375000000e+04
-6.087453125000000000e+04
-6.087407421875000000e+04
-6.087425000000000000e+04
-6.087248437500000000e+04
-6.087230468750000000e+04
-6.087378125000000000e+04
-6.087463671875000000e+04
-6.087341796875000000e+04
-6.087248437500000000e+04
-6.087400781250000000e+04
-6.087321875000000000e+04
-6.087341406250000000e+04
-6.087346484375000000e+04
-6.087408984375000000e+04
-6.087290234375000000e+04
-6.087239843750000000e+04
-6.087246093750000000e+04
-6.087440625000000000e+04
-6.087273828125000000e+04
-6.087185937500000000e+04
-6.087260937500000000e+04
-6.087331250000000000e+04
-6.087332031250000000e+04
-6.087340625000000000e+04
-6.087158984375000000e+04
-6.087299609375000000e+04
-6.087351562500000000e+04
-6.087192578125000000e+04
-6.087241015625000000e+04
-6.087261328125000000e+04
-6.087275390625000000e+04
-6.087276562500000000e+04
-6.087226562500000000e+04
-6.087271093750000000e+04
-6.087189453125000000e+04
-6.087328515625000000e+04
-6.087195312500000000e+04
-6.087177734375000000e+04
-6.089219140625000000e+04
-6.087225781250000000e+04
-6.086669921875000000e+04
-6.086314843750000000e+04
-6.085964843750000000e+04
-6.085633203125000000e+04
-6.086000390625000000e+04
-6.085949218750000000e+04
-6.085876562500000000e+04
-6.085858593750000000e+04
-6.085747656250000000e+04
-6.085701953125000000e+04
-6.085740234375000000e+04
-6.085957812500000000e+04
-6.085885156250000000e+04
-6.085689843750000000e+04
-6.085743750000000000e+04
-6.085636718750000000e+04
-6.085521093750000000e+04
-6.085968359375000000e+04
-6.085993750000000000e+04
-6.085932812500000000e+04
-6.085703515625000000e+04
-6.085635546875000000e+04
-6.085634375000000000e+04
-6.085929296875000000e+04
-6.085862109375000000e+04
-6.085980859375000000e+04
-6.085987109375000000e+04
-6.085764062500000000e+04
-6.085772265625000000e+04
-6.085831250000000000e+04
-6.085775000000000000e+04
-6.085621093750000000e+04
-6.085803515625000000e+04
-6.085656640625000000e+04
-6.085972656250000000e+04
-6.085986718750000000e+04
-6.085678906250000000e+04
-6.085879687500000000e+04
-6.085585156250000000e+04
-6.085723046875000000e+04
-6.085927343750000000e+04
-6.086042578125000000e+04
-6.085813671875000000e+04
-6.089219140625000000e+04
-6.086490234375000000e+04
-6.085988281250000000e+04
-6.085489062500000000e+04
-6.084563671875000000e+04
-6.084331250000000000e+04
-6.083660937500000000e+04
-6.083457812500000000e+04
-6.083760546875000000e+04
-6.083507812500000000e+04
-6.083725781250000000e+04
-6.083626953125000000e+04
-6.083706250000000000e+04
-6.083726953125000000e+04
-6.083885937500000000e+04
-6.083980078125000000e+04
-6.084300390625000000e+04
-6.084172656250000000e+04
-6.084064843750000000e+04
-6.083625000000000000e+04
-6.083677734375000000e+04
-6.083633593750000000e+04
-6.083939062500000000e+04
-6.084092187500000000e+04
-6.084281640625000000e+04
-6.084075390625000000e+04
-6.084129296875000000e+04
-6.084035937500000000e+04
-6.083739062500000000e+04
-6.083835546875000000e+04
-6.083623828125000000e+04
-6.084095703125000000e+04
-6.083524218750000000e+04
-6.083449609375000000e+04
-6.083463281250000000e+04
-6.083690625000000000e+04
-6.083719140625000000e+04
-6.083986328125000000e+04
-6.084129296875000000e+04
-6.084124609375000000e+04
-6.084510546875000000e+04
-6.084545703125000000e+04
-6.084451562500000000e+04
-6.083755078125000000e+04
-6.083561328125000000e+04
-6.083882031250000000e+04
-6.083982031250000000e+04
-6.083968359375000000e+04
-6.084136328125000000e+04
-6.087896093750000000e+04
-6.087671875000000000e+04
-6.087444531250000000e+04
-6.087335156250000000e+04
-6.087350000000000000e+04
-6.087422656250000000e+04
-6.087320312500000000e+04
-6.087305468750000000e+04
-6.087237890625000000e+04
-6.087454687500000000e+04
-6.087348437500000000e+04
-6.086916796875000000e+04
-6.087275781250000000e+04
-6.087279687500000000e+04
-6.087315625000000000e+04
-6.087303125000000000e+04
-6.087221093750000000e+04
-6.087223046875000000e+04
-6.087202343750000000e+04
-6.087341796875000000e+04
-6.087295703125000000e+04
-6.087328515625000000e+04
-6.087196484375000000e+04
-6.087265234375000000e+04
-6.087342578125000000e+04
-6.087176562500000000e+04
-6.087317578125000000e+04
-6.087424609375000000e+04
-6.087368359375000000e+04
-6.087370703125000000e+04
-6.087333203125000000e+04
-6.087266015625000000e+04
-6.087170703125000000e+04
-6.087164843750000000e+04
-6.087347656250000000e+04
-6.087312500000000000e+04
-6.087382421875000000e+04
-6.087321875000000000e+04
-6.087283203125000000e+04
-6.087286328125000000e+04
-6.087238281250000000e+04
-6.089325390625000000e+04
-6.087218750000000000e+04
-6.086852734375000000e+04
-6.086391796875000000e+04
-6.086052343750000000e+04
-6.085843750000000000e+04
-6.085805468750000000e+04
-6.085901953125000000e+04
-6.085928515625000000e+04
-6.085869531250000000e+04
-6.086017578125000000e+04
-6.085742187500000000e+04
-6.085679687500000000e+04
-6.085453515625000000e+04
-6.085710546875000000e+04
-6.085814062500000000e+04
-6.085986718750000000e+04
-6.085914453125000000e+04
-6.085949609375000000e+04
-6.085699609375000000e+04
-6.085623046875000000e+04
-6.085448437500000000e+04
-6.085481250000000000e+04
-6.085760156250000000e+04
-6.085699218750000000e+04
-6.085914843750000000e+04
-6.085657421875000000e+04
-6.085858593750000000e+04
-6.085702734375000000e+04
-6.085946093750000000e+04
-6.085942578125000000e+04
-6.085807421875000000e+04
-6.085942187500000000e+04
-6.085785546875000000e+04
-6.085667578125000000e+04
-6.085676171875000000e+04
-6.085899609375000000e+04
-6.086024218750000000e+04
-6.085731640625000000e+04
-6.085946093750000000e+04
-6.085927343750000000e+04
-6.086008984375000000e+04
-6.085699218750000000e+04
-6.085847656250000000e+04
-6.085790234375000000e+04
-6.085615234375000000e+04
-6.085520312500000000e+04
-6.085928125000000000e+04
-6.089325390625000000e+04
-6.086750781250000000e+04
-6.085936328125000000e+04
-6.085264843750000000e+04
-6.084580078125000000e+04
-6.083973046875000000e+04
-6.083484765625000000e+04
-6.083456250000000000e+04
-6.083596875000000000e+04
-6.083873437500000000e+04
-6.083822265625000000e+04
-6.083647265625000000e+04
-6.083518750000000000e+04
-6.083446093750000000e+04
-6.083486328125000000e+04
-6.084038671875000000e+04
-6.083592968750000000e+04
-6.083837890625000000e+04
-6.083458593750000000e+04
-6.083060937500000000e+04
-6.083129296875000000e+04
-6.083520703125000000e+04
-6.083848046875000000e+04
-6.083925781250000000e+04
-6.083791015625000000e+04
-6.083892187500000000e+04
-6.083937890625000000e+04
-6.083504687500000000e+04
-6.083480078125000000e+04
-6.083783593750000000e+04
-6.083545312500000000e+04
-6.083756250000000000e+04
-6.083720703125000000e+04
-6.083792968750000000e+04
-6.083603125000000000e+04
-6.083445703125000000e+04
-6.083648046875000000e+04
-6.083917187500000000e+04
-6.083824609375000000e+04
-6.083700781250000000e+04
-6.084014453125000000e+04
-6.083741015625000000e+04
-6.083566015625000000e+04
-6.083712500000000000e+04
-6.083518750000000000e+04
-6.083752734375000000e+04
-6.089408593750000000e+04
-6.088097656250000000e+04
-6.087746093750000000e+04
-6.087370703125000000e+04
-6.087435156250000000e+04
-6.087470703125000000e+04
-6.087592968750000000e+04
-6.087303125000000000e+04
-6.087513281250000000e+04
-6.087441015625000000e+04
-6.087421484375000000e+04
-6.087241015625000000e+04
-6.087277734375000000e+04
-6.087224609375000000e+04
-6.087254296875000000e+04
-6.087303125000000000e+04
-6.087263671875000000e+04
-6.087478515625000000e+04
-6.087389453125000000e+04
-6.087331640625000000e+04
-6.087207031250000000e+04
-6.087405859375000000e+04
-6.087481250000000000e+04
-6.087344531250000000e+04
-6.087055078125000000e+04
-6.087210156250000000e+04
-6.087190625000000000e+04
-6.087287500000000000e+04
-6.087266796875000000e+04
-6.087244531250000000e+04
-6.087196484375000000e+04
-6.087086718750000000e+04
-6.087163281250000000e+04
-6.087183203125000000e+04
-6.087177734375000000e+04
-6.087244531250000000e+04
-6.087273828125000000e+04
-6.087144140625000000e+04
-6.087234375000000000e+04
-6.087103125000000000e+04
-6.087336328125000000e+04
-6.087385546875000000e+04
-6.087300781250000000e+04
-6.089408593750000000e+04
-6.087398046875000000e+04
-6.086826562500000000e+04
-6.086298437500000000e+04
-6.086045703125000000e+04
-6.085724218750000000e+04
-6.085786328125000000e+04
-6.085983593750000000e+04
-6.085979687500000000e+04
-6.085943750000000000e+04
-6.085925390625000000e+04
-6.085867968750000000e+04
-6.085762500000000000e+04
-6.085951562500000000e+04
-6.085905078125000000e+04
-6.086032031250000000e+04
-6.085921093750000000e+04
-6.086007421875000000e+04
-6.085786328125000000e+04
-6.085739062500000000e+04
-6.085915234375000000e+04
-6.085933593750000000e+04
-6.085734375000000000e+04
-6.085689453125000000e+04
-6.085850781250000000e+04
-6.086022656250000000e+04
-6.085837109375000000e+04
-6.085704687500000000e+04
-6.085513281250000000e+04
-6.085727343750000000e+04
-6.085956250000000000e+04
-6.085894531250000000e+04
-6.085674609375000000e+04
-6.085742968750000000e+04
-6.085860156250000000e+04
-6.085542968750000000e+04
-6.085819921875000000e+04
-6.085880468750000000e+04
-6.085855078125000000e+04
-6.085686718750000000e+04
-6.085717968750000000e+04
-6.085693359375000000e+04
-6.086029687500000000e+04
-6.085989843750000000e+04
-6.086054296875000000e+04
-6.085842968750000000e+04
-6.085587500000000000e+04
-6.089408593750000000e+04
-6.086666406250000000e+04
-6.085744531250000000e+04
-6.085344140625000000e+04
-6.084662500000000000e+04
-6.083798828125000000e+04
-6.083842187500000000e+04
-6.084155078125000000e+04
-6.084246484375000000e+04
-6.084352734375000000e+04
-6.084294531250000000e+04
-6.084200390625000000e+04
-6.084003906250000000e+04
-6.083917968750000000e+04
-6.083930468750000000e+04
-6.084079296875000000e+04
-6.084137890625000000e+04
-6.084505468750000000e+04
-6.084282812500000000e+04
-6.083915234375000000e+04
-6.083942968750000000e+04
-6.083838671875000000e+04
-6.084265625000000000e+04
-6.084261328125000000e+04
-6.084214843750000000e+04
-6.084267187500000000e+04
-6.084387109375000000e+04
-6.084005468750000000e+04
-6.083687109375000000e+04
-6.083837500000000000e+04
-6.083448437500000000e+04
-6.083950000000000000e+04
-6.083728125000000000e+04
-6.083908984375000000e+04
-6.083950390625000000e+04
-6.084300000000000000e+04
-6.083783203125000000e+04
-6.083564453125000000e+04
-6.083965625000000000e+04
-6.083562890625000000e+04
-6.083846875000000000e+04
-6.083416406250000000e+04
-6.083418750000000000e+04
-6.089226562500000000e+04
-6.087955078125000000e+04
-6.087656640625000000e+04
-6.087382031250000000e+04
-6.087282421875000000e+04
-6.087276171875000000e+04
-6.087512109375000000e+04
-6.087453125000000000e+04
-6.087466796875000000e+04
-6.087541406250000000e+04
-6.087601171875000000e+04
-6.087472265625000000e+04
-6.087402343750000000e+04
-6.087244140625000000e+04
-6.087418750000000000e+04
-6.087382421875000000e+04
-6.087310546875000000e+04
-6.087292187500000000e+04
-6.087364843750000000e+04
-6.087339062500000000e+04
-6.087381250000000000e+04
-6.087240234375000000e+04
-6.087268359375000000e+04
-6.087328515625000000e+04
-6.087481250000000000e+04
-6.087295703125000000e+04
-6.087314453125000000e+04
-6.087381640625000000e+04
-6.087204296875000000e+04
-6.087294921875000000e+04
-6.087369140625000000e+04
-6.087514843750000000e+04
-6.087518359375000000e+04
-6.087467187500000000e+04
-6.087294531250000000e+04
-6.087313281250000000e+04
-6.087429687500000000e+04
-6.087502343750000000e+04
-6.087393359375000000e+04
-6.087282031250000000e+04
-6.087374609375000000e+04
-6.087432031250000000e+04
-6.087351171875000000e+04
-6.087507812500000000e+04
-6.089226562500000000e+04
-6.087136718750000000e+04
-6.086689843750000000e+04
-6.086528125000000000e+04
-6.086183203125000000e+04
-6.085773046875000000e+04
-6.085673046875000000e+04
-6.085769921875000000e+04
-6.085873828125000000e+04
-6.085837500000000000e+04
-6.085827734375000000e+04
-6.086028906250000000e+04
-6.085832812500000000e+04
-6.085837890625000000e+04
-6.085755468750000000e+04
-6.085760156250000000e+04
-6.085779687500000000e+04
-6.085971875000000000e+04
-6.085858203125000000e+04
-6.085631250000000000e+04
-6.085783593750000000e+04
-6.085914062500000000e+04
-6.085988281250000000e+04
-6.085965234375000000e+04
-6.085683203125000000e+04
-6.085551562500000000e+04
-6.085662109375000000e+04
-6.085949609375000000e+04
-6.085842968750000000e+04
-6.085913671875000000e+04
-6.085865625000000000e+04
-6.085575781250000000e+04
-6.085640625000000000e+04
-6.085534765625000000e+04
-6.085791406250000000e+04
-6.085555859375000000e+04
-6.085662500000000000e+04
-6.085678515625000000e+04
-6.085642187500000000e+04
-6.085670312500000000e+04
-6.085767968750000000e+04
-6.085867187500000000e+04
-6.085637109375000000e+04
-6.085625390625000000e+04
-6.085593359375000000e+04
-6.085660937500000000e+04
-6.085541406250000000e+04
-6.085754687500000000e+04
-6.085572265625000000e+04
-6.089226562500000000e+04
-6.086570312500000000e+04
-6.085833593750000000e+04
-6.085530468750000000e+04
-6.084866015625000000e+04
-6.084250390625000000e+04
-6.083758593750000000e+04
-6.083752734375000000e+04
-6.083955078125000000e+04
-6.084110937500000000e+04
-6.084406640625000000e+04
-6.084234375000000000e+04
-6.084001171875000000e+04
-6.083656640625000000e+04
-6.083396484375000000e+04
-6.083595703125000000e+04
-6.083530859375000000e+04
-6.083776953125000000e+04
-6.083676953125000000e+04
-6.083366796875000000e+04
-6.083352343750000000e+04
-6.083294531250000000e+04
-6.083741406250000000e+04
-6.083618750000000000e+04
-6.083627734375000000e+04
-6.083425000000000000e+04
-6.083580468750000000e+04
-6.084017968750000000e+04
-6.084140234375000000e+04
-6.083988671875000000e+04
-6.083507421875000000e+04
-6.083896484375000000e+04
-6.083762890625000000e+04
-6.083586718750000000e+04
-6.083932421875000000e+04
-6.083804687500000000e+04
-6.083997265625000000e+04
-6.084001171875000000e+04
-6.084199609375000000e+04
-6.083956250000000000e+04
-6.084076171875000000e+04
-6.084125781250000000e+04
-6.084048437500000000e+04
-6.084064062500000000e+04
-6.084032812500000000e+04
-6.083690625000000000e+04
-6.089169140625000000e+04
-6.088035937500000000e+04
-6.087646875000000000e+04
-6.087322656250000000e+04
-6.087214843750000000e+04
-6.087400390625000000e+04
-6.087335156250000000e+04
-6.087267578125000000e+04
-6.087405468750000000e+04
-6.087330468750000000e+04
-6.087294140625000000e+04
-6.087437890625000000e+04
-6.087587109375000000e+04
-6.087427734375000000e+04
-6.087417578125000000e+04
-6.087395312500000000e+04
-6.087565234375000000e+04
-6.087437890625000000e+04
-6.087421875000000000e+04
-6.087455468750000000e+04
-6.087466015625000000e+04
-6.087216015625000000e+04
-6.087373828125000000e+04
-6.087411328125000000e+04
-6.087332421875000000e+04
-6.087340234375000000e+04
-6.087373828125000000e+04
-6.087482421875000000e+04
-6.087462890625000000e+04
-6.087515234375000000e+04
-6.087351171875000000e+04
-6.087391015625000000e+04
-6.087294921875000000e+04
-6.087459765625000000e+04
-6.087505078125000000e+04
-6.087580078125000000e+04
-6.087459765625000000e+04
-6.087372265625000000e+04
-6.087409375000000000e+04
-6.087355078125000000e+04
-6.087331250000000000e+04
-6.087458203125000000e+04
-6.087486718750000000e+04
-6.087448437500000000e+04
-6.087466406250000000e+04
-6.087237890625000000e+04
-6.087304296875000000e+04
-6.089169140625000000e+04
-6.087119140625000000e+04
-6.086675781250000000e+04
-6.086276562500000000e+04
-6.085998828125000000e+04
-6.085647265625000000e+04
-6.085657421875000000e+04
-6.085723828125000000e+04
-6.085741406250000000e+04
-6.085748437500000000e+04
-6.085721875000000000e+04
-6.085773046875000000e+04
-6.085604687500000000e+04
-6.085662890625000000e+04
-6.085644531250000000e+04
-6.085709375000000000e+04
-6.085843359375000000e+04
-6.085699218750000000e+04
-6.085659765625000000e+04
-6.085775000000000000e+04
-6.085905468750000000e+04
-6.085859375000000000e+04
-6.085952343750000000e+04
-6.086031640625000000e+04
-6.085703906250000000e+04
-6.085703125000000000e+04
-6.085948828125000000e+04
-6.085965234375000000e+04
-6.086020312500000000e+04
-6.086007812500000000e+04
-6.085732812500000000e+04
-6.085841406250000000e+04
-6.085815234375000000e+04
-6.085635937500000000e+04
-6.085930859375000000e+04
-6.086053515625000000e+04
-6.086261328125000000e+04
-6.086022656250000000e+04
-6.085734375000000000e+04
-6.085733203125000000e+04
-6.085802734375000000e+04
-6.085828906250000000e+04
-6.085939843750000000e+04
-6.085787890625000000e+04
-6.089169140625000000e+04
-6.085907421875000000e+04
-6.084910156250000000e+04
-6.084543359375000000e+04
-6.083926562500000000e+04
-6.083673437500000000e+04
-6.083948046875000000e+04
-6.083882031250000000e+04
-6.083978906250000000e+04
-6.083517968750000000e+04
-6.083760546875000000e+04
-6.083979687500000000e+04
-6.084132031250000000e+04
-6.083841406250000000e+04
-6.083892968750000000e+04
-6.083702343750000000e+04
-6.083790234375000000e+04
-6.083882421875000000e+04
-6.084312890625000000e+04
-6.083917578125000000e+04
-6.083742578125000000e+04
-6.083604296875000000e+04
-6.083783203125000000e+04
-6.083810156250000000e+04
-6.083658203125000000e+04
-6.083611328125000000e+04
-6.083940625000000000e+04
-6.083944921875000000e+04
-6.083832421875000000e+04
-6.083817187500000000e+04
-6.083695312500000000e+04
-6.084031250000000000e+04
-6.083903906250000000e+04
-6.083899609375000000e+04
-6.083700390625000000e+04
-6.084118359375000000e+04
-6.084024218750000000e+04
-6.084233984375000000e+04
-6.084478515625000000e+04
-6.084148437500000000e+04
-6.084183203125000000e+04
-6.083931640625000000e+04
-6.083912890625000000e+04
-6.083869140625000000e+04
-6.083866015625000000e+04
-6.089291796875000000e+04
-6.088034375000000000e+04
-6.087691406250000000e+04
-6.087459765625000000e+04
-6.087410937500000000e+04
-6.087373437500000000e+04
-6.087489843750000000e+04
-6.087460937500000000e+04
-6.086887500000000000e+04
-6.087309765625000000e+04
-6.087142968750000000e+04
-6.087403125000000000e+04
-6.087415234375000000e+04
-6.087327734375000000e+04
-6.087420703125000000e+04
-6.087388671875000000e+04
-6.087496875000000000e+04
-6.087583984375000000e+04
-6.087287500000000000e+04
-6.087260937500000000e+04
-6.087353125000000000e+04
-6.087399609375000000e+04
-6.087430468750000000e+04
-6.087415625000000000e+04
-6.087326171875000000e+04
-6.087281640625000000e+04
-6.087395703125000000e+04
-6.087458593750000000e+04
-6.087394531250000000e+04
-6.087476171875000000e+04
-6.087238281250000000e+04
-6.087220703125000000e+04
-6.087401171875000000e+04
-6.087408203125000000e+04
-6.087485156250000000e+04
-6.087430078125000000e+04
-6.087261718750000000e+04
-6.087426562500000000e+04
-6.087271875000000000e+04
-6.087472656250000000e+04
-6.087388281250000000e+04
-6.087341015625000000e+04
-6.087317578125000000e+04
-6.087408984375000000e+04
-6.087395312500000000e+04
-6.087430078125000000e+04
-6.089291796875000000e+04
-6.087176562500000000e+04
-6.086594921875000000e+04
-6.086171093750000000e+04
-6.085857031250000000e+04
-6.085801562500000000e+04
-6.085649609375000000e+04
-6.085686718750000000e+04
-6.086001562500000000e+04
-6.085996093750000000e+04
-6.086111328125000000e+04
-6.086015625000000000e+04
-6.085791406250000000e+04
-6.085599218750000000e+04
-6.085941015625000000e+04
-6.085969140625000000e+04
-6.085746093750000000e+04
-6.085599218750000000e+04
-6.085541406250000000e+04
-6.085449218750000000e+04
-6.085846484375000000e+04
-6.085921093750000000e+04
-6.085846093750000000e+04
-6.085766406250000000e+04
-6.085880078125000000e+04
-6.085772656250000000e+04
-6.085835546875000000e+04
-6.085766015625000000e+04
-6.085717578125000000e+04
-6.085548046875000000e+04
-6.085776562500000000e+04
-6.085827343750000000e+04
-6.085707421875000000e+04
-6.085654687500000000e+04
-6.085770703125000000e+04
-6.085538671875000000e+04
-6.085512890625000000e+04
-6.085282031250000000e+04
-6.085666015625000000e+04
-6.085689453125000000e+04
-6.085681250000000000e+04
-6.085662500000000000e+04
-6.085550390625000000e+04
-6.085599218750000000e+04
-6.085675781250000000e+04
-6.085673437500000000e+04
-6.085892578125000000e+04
-6.085841796875000000e+04
-6.085906640625000000e+04
-6.089291796875000000e+04
-6.086548828125000000e+04
-6.085941796875000000e+04
-6.085317968750000000e+04
-6.084704296875000000e+04
-6.083993359375000000e+04
-6.083662109375000000e+04
-6.083428125000000000e+04
-6.083724218750000000e+04
-6.083948828125000000e+04
-6.084114062500000000e+04
-6.084194140625000000e+04
-6.083991015625000000e+04
-6.083974609375000000e+04
-6.084083984375000000e+04
-6.083701171875000000e+04
-6.083595703125000000e+04
-6.083916015625000000e+04
-6.084133984375000000e+04
-6.083815234375000000e+04
-6.083608593750000000e+04
-6.083617578125000000e+04
-6.084067578125000000e+04
-6.084032421875000000e+04
-6.083826953125000000e+04
-6.083941015625000000e+04
-6.084016015625000000e+04
-6.083715234375000000e+04
-6.083887500000000000e+04
-6.083722656250000000e+04
-6.083898828125000000e+04
-6.083722265625000000e+04
-6.084105078125000000e+04
-6.083861718750000000e+04
-6.083987500000000000e+04
-6.083881250000000000e+04
-6.084235546875000000e+04
-6.083900000000000000e+04
-6.084324218750000000e+04
-6.083437500000000000e+04
-6.089139453125000000e+04
-6.088010156250000000e+04
-6.087562890625000000e+04
-6.087370703125000000e+04
-6.087305859375000000e+04
-6.087266796875000000e+04
-6.087445312500000000e+04
-6.087350000000000000e+04
-6.087383984375000000e+04
-6.087367578125000000e+04
-6.087356640625000000e+04
-6.087320312500000000e+04
-6.087470703125000000e+04
-6.087338281250000000e+04
-6.087343359375000000e+04
-6.087303125000000000e+04
-6.087236718750000000e+04
-6.087378906250000000e+04
-6.087355078125000000e+04
-6.087458984375000000e+04
-6.087392968750000000e+04
-6.087448046875000000e+04
-6.087390625000000000e+04
-6.087307031250000000e+04
-6.087424609375000000e+04
-6.087395703125000000e+04
-6.087385156250000000e+04
-6.087476953125000000e+04
-6.087409765625000000e+04
-6.087437500000000000e+04
-6.087417187500000000e+04
-6.087466015625000000e+04
-6.087463671875000000e+04
-6.087342187500000000e+04
-6.087408984375000000e+04
-6.087380859375000000e+04
-6.087523046875000000e+04
-6.087285546875000000e+04
-6.087346875000000000e+04
-6.087475781250000000e+04
-6.087503906250000000e+04
-6.087487109375000000e+04
-6.087433593750000000e+04
-6.087327734375000000e+04
-6.087175000000000000e+04
-6.087258203125000000e+04
-6.087261328125000000e+04
-6.089139453125000000e+04
-6.087154687500000000e+04
-6.086551171875000000e+04
-6.086367968750000000e+04
-6.085901953125000000e+04
-6.085717968750000000e+04
-6.085547265625000000e+04
-6.085628906250000000e+04
-6.085970703125000000e+04
-6.085917968750000000e+04
-6.085896484375000000e+04
-6.085603125000000000e+04
-6.085568359375000000e+04
-6.085791796875000000e+04
-6.085889062500000000e+04
-6.085864062500000000e+04
-6.085863281250000000e+04
-6.085655468750000000e+04
-6.085649609375000000e+04
-6.085615234375000000e+04
-6.085698437500000000e+04
-6.085855468750000000e+04
-6.085802343750000000e+04
-6.085511718750000000e+04
-6.085607812500000000e+04
-6.085414062500000000e+04
-6.085678906250000000e+04
-6.085778906250000000e+04