-1.998777198791503906e+01 1.624984359741210938e+01 2.647660064697265625e+01 1.624984359741210938e+01 -9.840651702880859375e+01 9.642893791198730469e+00 2.647660064697265625e+01 9.642893791198730469e+00 -6.853008270263671875e+01
-7.104943275451660156e+00 -2.190961837768554688e+00 -5.128439426422119141e+00 -2.190961837768554688e+00 -2.038380050659179688e+01 7.471495151519775391e+00 -5.128439426422119141e+00 7.471495151519775391e+00 -1.064635944366455078e+01
-2.109857559204101562e+01 8.740138053894042969e+00 1.498004317283630371e+00 8.740138053894042969e+00 -4.109580230712890625e+01 -2.100938320159912109e+00 1.498004317283630371e+00 -2.100938320159912109e+00 -1.982155227661132812e+01
5.943521022796630859e+00 3.802291870117187500e+00 7.143180847167968750e+00 3.802291870117187500e+00 -1.841371917724609375e+01 2.685509443283081055e+00 7.143180847167968750e+00 2.685509443283081055e+00 -9.816044807434082031e+00
-1.585115313529968262e+00 5.307052135467529297e+00 1.592249965667724609e+01 5.307052135467529297e+00 -2.212683486938476562e+01 1.056899929046630859e+01 1.592249965667724609e+01 1.056899929046630859e+01 -1.784346389770507812e+01
-1.061686706542968750e+01 1.063533425331115723e+00 3.560121536254882812e+00 1.063533425331115723e+00 -1.846963310241699219e+01 8.310192108154296875e+00 3.560121536254882812e+00 8.310192108154296875e+00 -4.893672561645507812e+01
-1.892459392547607422e-01 8.221017837524414062e+00 5.876787662506103516e+00 8.221017837524414062e+00 9.770349264144897461e-01 4.864949703216552734e+00 5.876787662506103516e+00 4.864949703216552734e+00 6.977294087409973145e-01
-2.464723587036132812e+01 2.674060106277465820e+00 3.690826177597045898e+00 2.674060106277465820e+00 -1.757310104370117188e+01 1.532087516784667969e+01 3.690826177597045898e+00 1.532087516784667969e+01 -2.281886100769042969e+01
1.606542968750000000e+01 -6.527648448944091797e+00 2.135134220123291016e+00 -6.527648448944091797e+00 -4.620693206787109375e+00 1.175796508789062500e+01 2.135134220123291016e+00 1.175796508789062500e+01 -2.650169944763183594e+01
1.428510379791259766e+01 -9.758111953735351562e+00 -4.541285514831542969e+00 -9.758111953735351562e+00 -1.413634121417999268e-01 1.199712848663330078e+01 -4.541285514831542969e+00 1.199712848663330078e+01 -1.253344631195068359e+01
-2.834905242919921875e+01 -9.547363281250000000e+00 6.985489845275878906e+00 -9.547363281250000000e+00 -2.364106178283691406e+01 1.016368389129638672e+01 6.985489845275878906e+00 1.016368389129638672e+01 -2.921364402770996094e+01
6.032125949859619141e+00 -3.015263080596923828e+00 5.582212448120117188e+00 -3.015263080596923828e+00 -1.196821403503417969e+01 1.728075504302978516e+00 5.582212448120117188e+00 1.728075504302978516e+00 -3.921760559082031250e+00
3.060447216033935547e+00 6.976854324340820312e+00 5.247100830078125000e+00 6.976854324340820312e+00 -1.358191680908203125e+01 -8.345635235309600830e-02 5.247100830078125000e+00 -8.345635235309600830e-02 -2.037966728210449219e+01
-1.108876419067382812e+01 -6.628924012184143066e-01 3.045525789260864258e+00 -6.628924012184143066e-01 -6.631406784057617188e+00 1.280129814147949219e+01 3.045525789260864258e+00 1.280129814147949219e+01 -3.695842361450195312e+01
1.355359077453613281e+01 1.098356366157531738e+00 1.221666812896728516e+01 1.098356366157531738e+00 -2.025026321411132812e+01 3.134217500686645508e+00 1.221666812896728516e+01 3.134217500686645508e+00 -2.018724822998046875e+01
3.736728906631469727e+00 -9.563954353332519531e+00 1.133084964752197266e+01 -9.563954353332519531e+00 4.711605012416839600e-01 1.142907500267028809e+00 1.133084964752197266e+01 1.142907500267028809e+00 -2.520040512084960938e+01
-5.358518123626708984e+00 1.000321006774902344e+01 2.284662055969238281e+01 1.000321006774902344e+01 -2.824979400634765625e+01 2.452885866165161133e+00 2.284662055969238281e+01 2.452885866165161133e+00 -2.393046569824218750e+01
-1.800787925720214844e+00 6.921298503875732422e+00 2.561266124248504639e-01 6.921298503875732422e+00 -4.823584556579589844e+00 -6.425685286521911621e-01 2.561266124248504639e-01 -6.425685286521911621e-01 -3.853265523910522461e+00
-1.558704566955566406e+01 7.077531337738037109e+00 1.375258684158325195e+00 7.077531337738037109e+00 -5.699884891510009766e+00 1.252223396301269531e+01 1.375258684158325195e+00 1.252223396301269531e+01 -9.999489784240722656e+00
-6.347137451171875000e+00 7.642409324645996094e+00 8.970088005065917969e+00 7.642409324645996094e+00 -2.128349685668945312e+01 4.426317691802978516e+00 8.970088005065917969e+00 4.426317691802978516e+00 -4.545516014099121094e+00
-2.590759038925170898e+00 -2.529469490051269531e+00 9.758875846862792969e+00 -2.529469490051269531e+00 -1.122689437866210938e+01 -8.080250740051269531e+00 9.758875846862792969e+00 -8.080250740051269531e+00 -1.370189952850341797e+01
-5.814577102661132812e+00 1.426937103271484375e+00 -5.661884307861328125e+00 1.426937103271484375e+00 -4.746313095092773438e+00 -3.714066982269287109e+00 -5.661884307861328125e+00 -3.714066982269287109e+00 -3.085770034790039062e+01
-7.989141941070556641e+00 5.223100185394287109e+00 3.260733187198638916e-01 5.223100185394287109e+00 -1.191645431518554688e+01 2.376496076583862305e+00 3.260733187198638916e-01 2.376496076583862305e+00 -1.517832279205322266e+01
-8.979351997375488281e+00 -4.032908439636230469e+00 1.874027824401855469e+01 -4.032908439636230469e+00 -1.601836585998535156e+01 5.265777587890625000e+00 1.874027824401855469e+01 5.265777587890625000e+00 -6.801653861999511719e+00
9.943517684936523438e+00 7.144389629364013672e+00 1.487463855743408203e+01 7.144389629364013672e+00 -2.003101348876953125e+01 9.115519523620605469e+00 1.487463855743408203e+01 9.115519523620605469e+00 -1.424949932098388672e+01
8.047645568847656250e+00 9.718195915222167969e+00 -1.739084959030151367e+00 9.718195915222167969e+00 -1.103863430023193359e+01 3.437883615493774414e+00 -1.739084959030151367e+00 3.437883615493774414e+00 -3.110908889770507812e+01
-2.301588535308837891e+00 3.444303750991821289e+00 1.247389554977416992e+00 3.444303750991821289e+00 -2.762180566787719727e+00 -2.476541042327880859e+00 1.247389554977416992e+00 -2.476541042327880859e+00 -1.085026359558105469e+01
5.819853782653808594e+00 5.454304218292236328e+00 1.647154235839843750e+01 5.454304218292236328e+00 -2.029420280456542969e+01 -5.356735229492187500e+00 1.647154235839843750e+01 -5.356735229492187500e+00 -2.219626045227050781e+01
-1.321222114562988281e+01 8.917509078979492188e+00 8.431540131568908691e-01 8.917509078979492188e+00 -4.023705291748046875e+01 -1.015023887157440186e-01 8.431540131568908691e-01 -1.015023887157440186e-01 -7.012838840484619141e+00
-3.232908964157104492e+00 -4.407677650451660156e+00 1.131770968437194824e+00 -4.407677650451660156e+00 -6.632081031799316406e+00 4.255010604858398438e+00 1.131770968437194824e+00 4.255010604858398438e+00 -6.765440464019775391e+00
-1.748856544494628906e+00 1.024365329742431641e+01 9.729490280151367188e+00 1.024365329742431641e+01 -1.095869541168212891e+01 9.607057571411132812e+00 9.729490280151367188e+00 9.607057571411132812e+00 -8.681597709655761719e+00
-2.288725090026855469e+01 1.114094352722167969e+01 4.160360336303710938e+00 1.114094352722167969e+01 -2.416364860534667969e+01 7.554673194885253906e+00 4.160360336303710938e+00 7.554673194885253906e+00 -1.263814544677734375e+01
-1.857698822021484375e+01 4.579736709594726562e+00 4.044642448425292969e+00 4.579736709594726562e+00 -9.803585410118103027e-01 -3.194221556186676025e-01 4.044642448425292969e+00 -3.194221556186676025e-01 -1.370381641387939453e+01
-4.355939388275146484e+00 9.704360008239746094e+00 -1.521777629852294922e+00 9.704360008239746094e+00 -7.078602313995361328e-01 9.547079086303710938e+00 -1.521777629852294922e+00 9.547079086303710938e+00 6.014713764190673828e+00
5.599812269210815430e-01 1.762417984008789062e+01 3.386243820190429688e+00 1.762417984008789062e+01 -1.065808391571044922e+01 8.101995468139648438e+00 3.386243820190429688e+00 8.101995468139648438e+00 -1.164690494537353516e+01
-1.869006156921386719e+01 -4.932385921478271484e+00 -5.176770687103271484e+00 -4.932385921478271484e+00 -1.081757831573486328e+01 1.512277221679687500e+01 -5.176770687103271484e+00 1.512277221679687500e+01 -9.781250953674316406e+00
5.880411624908447266e+00 1.712431335449218750e+01 6.223162651062011719e+00 1.712431335449218750e+01 -1.500814723968505859e+01 -2.593090295791625977e+00 6.223162651062011719e+00 -2.593090295791625977e+00 -8.931770324707031250e+00
-1.611636352539062500e+01 2.469825983047485352e+00 7.203754425048828125e+00 2.469825983047485352e+00 -5.815377235412597656e+00 5.455594062805175781e+00 7.203754425048828125e+00 5.455594062805175781e+00 -1.763835668563842773e+00
-9.189760208129882812e+00 5.907688617706298828e+00 1.551021194458007812e+01 5.907688617706298828e+00 -9.901050567626953125e+00 -1.881265759468078613e+00 1.551021194458007812e+01 -1.881265759468078613e+00 -1.054013538360595703e+01
-1.527397060394287109e+01 7.026021480560302734e+00 -2.656329870223999023e+00 7.026021480560302734e+00 -2.055622291564941406e+01 2.817732334136962891e+00 -2.656329870223999023e+00 2.817732334136962891e+00 -4.472044467926025391e+00
9.247450828552246094e+00 1.073488235473632812e+01 1.071335315704345703e+01 1.073488235473632812e+01 -2.643848991394042969e+01 -1.650726318359375000e+00 1.071335315704345703e+01 -1.650726318359375000e+00 1.332862854003906250e+01
-7.123006820678710938e+00 5.638263702392578125e+00 -3.733898162841796875e+00 5.638263702392578125e+00 -9.682306289672851562e+00 1.288687705993652344e+01 -3.733898162841796875e+00 1.288687705993652344e+01 -1.063207745552062988e+00
-8.072118759155273438e+00 -1.659633994102478027e+00 1.073412418365478516e+01 -1.659633994102478027e+00 -3.659981536865234375e+01 7.884972572326660156e+00 1.073412418365478516e+01 7.884972572326660156e+00 -1.021423816680908203e+01
-1.296696376800537109e+01 9.214567542076110840e-01 -4.880184173583984375e+00 9.214567542076110840e-01 -2.779251670837402344e+01 4.895748615264892578e+00 -4.880184173583984375e+00 4.895748615264892578e+00 -2.210443496704101562e+00
-1.058395290374755859e+01 -4.022085294127464294e-02 4.429865837097167969e+00 -4.022085294127464294e-02 -9.776307106018066406e+00 8.793884277343750000e+00 4.429865837097167969e+00 8.793884277343750000e+00 -2.211385965347290039e+00
-1.998784446716308594e+01 1.624987602233886719e+01 2.647653007507324219e+01 1.624987602233886719e+01 -9.840642547607421875e+01 9.642900466918945312e+00 2.647653007507324219e+01 9.642900466918945312e+00 -6.853008270263671875e+01
6.665372848510742188e+00 8.018106460571289062e+00 7.003136157989501953e+00 8.018106460571289062e+00 -1.664709854125976562e+01 1.593485736846923828e+01 7.003136157989501953e+00 1.593485736846923828e+01 -9.726311683654785156e+00
-1.970072937011718750e+01 -3.670398235321044922e+00 7.200344204902648926e-01 -3.670398235321044922e+00 -3.244614410400390625e+01 -1.688929080963134766e+00 7.200344204902648926e-01 -1.688929080963134766e+00 -2.998324584960937500e+01
-1.344041824340820312e+00 8.710724830627441406e+00 7.627191066741943359e+00 8.710724830627441406e+00 -4.481948852539062500e+01 8.152320861816406250e+00 7.627191066741943359e+00 8.152320861816406250e+00 -1.445899486541748047e+01
-4.328876876831054688e+01 -2.125878572463989258e+00 9.396457672119140625e+00 -2.125878572463989258e+00 -2.547321891784667969e+01 6.984471797943115234e+00 9.396457672119140625e+00 6.984471797943115234e+00 -3.631487274169921875e+01
-6.293441295623779297e+00 -1.284572219848632812e+01 5.270533084869384766e+00 -1.284572219848632812e+01 -1.754217910766601562e+01 1.533662199974060059e+00 5.270533084869384766e+00 1.533662199974060059e+00 -2.086030197143554688e+01
-1.803809762001037598e+00 6.000432491302490234e+00 -5.969995975494384766e+00 6.000432491302490234e+00 -1.811499214172363281e+01 9.759673118591308594e+00 -5.969995975494384766e+00 9.759673118591308594e+00 -1.981559514999389648e+00
-2.241559219360351562e+01 -6.998963832855224609e+00 1.751737952232360840e+00 -6.998963832855224609e+00 -3.638086700439453125e+01 -7.287129878997802734e+00 1.751737952232360840e+00 -7.287129878997802734e+00 -3.716655349731445312e+01
-1.666927146911621094e+01 1.427383065223693848e+00 -8.172599792480468750e+00 1.427383065223693848e+00 -3.166279792785644531e+01 -3.080970287322998047e+00 -8.172599792480468750e+00 -3.080970287322998047e+00 -1.903861618041992188e+01
2.781234741210937500e+01 1.689710497856140137e+00 1.899787068367004395e+00 1.689710497856140137e+00 -1.278212666511535645e+00 -9.382733345031738281e+00 1.899787068367004395e+00 -9.382733345031738281e+00 -1.138282203674316406e+01
6.344191431999206543e-01 1.420567512512207031e+00 3.208653211593627930e+00 1.420567512512207031e+00 6.486774444580078125e+00 -6.059422492980957031e+00 3.208653211593627930e+00 -6.059422492980957031e+00 -1.390469837188720703e+01
-2.367668342590332031e+01 1.259716391563415527e+00 4.013539850711822510e-01 1.259716391563415527e+00 -3.166911697387695312e+01 3.329049587249755859e+00 4.013539850711822510e-01 3.329049587249755859e+00 -5.051906585693359375e+01
-1.008426666259765625e+01 -5.968989729881286621e-01 -2.258442163467407227e+00 -5.968989729881286621e-01 -1.269104480743408203e+01 1.097200393676757812e+01 -2.258442163467407227e+00 1.097200393676757812e+01 -2.697866249084472656e+01
-5.577219486236572266e+00 3.091130971908569336e+00 6.515871047973632812e+00 3.091130971908569336e+00 -9.419007301330566406e+00 -1.499029922485351562e+01 6.515871047973632812e+00 -1.499029922485351562e+01 -2.335138130187988281e+01
1.446683526039123535e+00 3.129689931869506836e+00 1.015149593353271484e+01 3.129689931869506836e+00 -2.356568527221679688e+01 -8.901896476745605469e+00 1.015149593353271484e+01 -8.901896476745605469e+00 -3.364980316162109375e+01
-1.952185392379760742e+00 7.770745754241943359e+00 1.757111549377441406e+01 7.770745754241943359e+00 -1.176748085021972656e+01 1.039495277404785156e+01 1.757111549377441406e+01 1.039495277404785156e+01 -2.373100852966308594e+01
-1.553019523620605469e+01 -9.297080993652343750e+00 1.410821819305419922e+01 -9.297080993652343750e+00 -2.257443237304687500e+01 -2.155682563781738281e+00 1.410821819305419922e+01 -2.155682563781738281e+00 -9.684025764465332031e+00
-3.628521728515625000e+01 1.322737884521484375e+01 2.006912231445312500e+01 1.322737884521484375e+01 -3.404654312133789062e+01 -4.332080841064453125e+00 2.006912231445312500e+01 -4.332080841064453125e+00 -2.895363235473632812e+01
-1.270738124847412109e+01 9.867316246032714844e+00 2.165910339355468750e+01 9.867316246032714844e+00 -3.668675184249877930e+00 2.459794282913208008e+00 2.165910339355468750e+01 2.459794282913208008e+00 -1.573135948181152344e+01
-7.120954513549804688e+00 7.945777416229248047e+00 1.104046058654785156e+01 7.945777416229248047e+00 -8.754255294799804688e+00 1.045583438873291016e+01 1.104046058654785156e+01 1.045583438873291016e+01 -2.798014450073242188e+01
-2.405717849731445312e+01 -2.243748426437377930e+00 1.711005401611328125e+01 -2.243748426437377930e+00 -2.176441574096679688e+01 -9.858639240264892578e-01 1.711005401611328125e+01 -9.858639240264892578e-01 -5.001021385192871094e+00
-1.940331459045410156e+01 1.595329856872558594e+01 5.443342685699462891e+00 1.595329856872558594e+01 -3.888609695434570312e+01 -8.177092552185058594e+00 5.443342685699462891e+00 -8.177092552185058594e+00 -1.694819831848144531e+01
1.785881233215332031e+01 1.004084396362304688e+01 7.404908180236816406e+00 1.004084396362304688e+01 -1.524356555938720703e+01 -2.869609832763671875e+00 7.404908180236816406e+00 -2.869609832763671875e+00 -2.357790184020996094e+01
-7.986801624298095703e+00 3.841199636459350586e+00 1.056437301635742188e+01 3.841199636459350586e+00 -8.853817939758300781e+00 2.119923830032348633e+00 1.056437301635742188e+01 2.119923830032348633e+00 -1.647159576416015625e+01
-1.093055152893066406e+01 3.816661357879638672e+00 -1.101856470108032227e+00 3.816661357879638672e+00 -2.913092613220214844e+01 -1.134833908081054688e+01 -1.101856470108032227e+00 -1.134833908081054688e+01 -4.032015228271484375e+01
7.356147289276123047e+00 -7.152964115142822266e+00 1.823075413703918457e+00 -7.152964115142822266e+00 -3.115375137329101562e+01 2.973644018173217773e+00 1.823075413703918457e+00 2.973644018173217773e+00 -1.236425685882568359e+01
-4.979204177856445312e+00 8.876341819763183594e+00 1.207380771636962891e+01 8.876341819763183594e+00 -3.142601013183593750e+01 7.485098361968994141e+00 1.207380771636962891e+01 7.485098361968994141e+00 -3.921494245529174805e+00
-3.824726104736328125e+01 7.741952538490295410e-01 -2.035888195037841797e+00 7.741952538490295410e-01 -2.244480323791503906e+01 4.436290264129638672e+00 -2.035888195037841797e+00 4.436290264129638672e+00 -4.681641006469726562e+01
-5.924730300903320312e+00 9.554587364196777344e+00 -1.840541958808898926e+00 9.554587364196777344e+00 2.564230680465698242e+00 -1.177112674713134766e+01 -1.840541958808898926e+00 -1.177112674713134766e+01 -2.368075132369995117e+00
-1.751240730285644531e+01 -5.547731399536132812e+00 4.864550113677978516e+00 -5.547731399536132812e+00 6.924936175346374512e-02 -8.991224288940429688e+00 4.864550113677978516e+00 -8.991224288940429688e+00 -5.600809574127197266e+00
-2.284143447875976562e+00 -1.700227141380310059e+00 1.928118133544921875e+01 -1.700227141380310059e+00 -5.498694896697998047e+00 -8.236722946166992188e+00 1.928118133544921875e+01 -8.236722946166992188e+00 -1.421647357940673828e+01
-4.063336181640625000e+01 -1.691634297370910645e+00 4.943059444427490234e+00 -1.691634297370910645e+00 -1.481557464599609375e+01 3.640694618225097656e+00 4.943059444427490234e+00 3.640694618225097656e+00 -2.302829170227050781e+01
-8.106144905090332031e+00 -1.039831161499023438e+01 1.603678894042968750e+01 -1.039831161499023438e+01 -1.728738784790039062e+01 -1.308408021926879883e+00 1.603678894042968750e+01 -1.308408021926879883e+00 -4.504227161407470703e+00
1.199641990661621094e+01 4.495141506195068359e+00 1.649240493774414062e+01 4.495141506195068359e+00 -2.302871704101562500e+01 3.726483345031738281e+00 1.649240493774414062e+01 3.726483345031738281e+00 -2.143167686462402344e+01
-9.568640708923339844e+00 -3.652098417282104492e+00 -1.563394355773925781e+01 -3.652098417282104492e+00 -1.879986000061035156e+01 -5.942661762237548828e+00 -1.563394355773925781e+01 -5.942661762237548828e+00 -9.147873878479003906e+00
-1.966734123229980469e+01 2.341126251220703125e+01 3.303276062011718750e+00 2.341126251220703125e+01 -2.031595230102539062e+01 8.143700599670410156e+00 3.303276062011718750e+00 8.143700599670410156e+00 -1.919526481628417969e+01
-3.414849853515625000e+01 6.381565093994140625e+00 1.795219421386718750e+01 6.381565093994140625e+00 -1.237142848968505859e+01 6.518070399761199951e-02 1.795219421386718750e+01 6.518070399761199951e-02 1.052653598785400391e+01
-1.706715393066406250e+01 -8.739486694335937500e+00 -6.786753177642822266e+00 -8.739486694335937500e+00 -6.506092071533203125e+00 5.531487464904785156e-01 -6.786753177642822266e+00 5.531487464904785156e-01 -7.365778923034667969e+00
-8.637851715087890625e+00 1.097404575347900391e+01 -1.161297798156738281e+01 1.097404575347900391e+01 -1.280666065216064453e+01 9.244865417480468750e+00 -1.161297798156738281e+01 9.244865417480468750e+00 -2.381742858886718750e+01
1.494717025756835938e+01 1.297189903259277344e+01 8.354413986206054688e+00 1.297189903259277344e+01 -2.694059562683105469e+01 -1.026144599914550781e+01 8.354413986206054688e+00 -1.026144599914550781e+01 1.087091445922851562e+01
-3.848722934722900391e+00 2.470573663711547852e+00 -2.109083652496337891e+00 2.470573663711547852e+00 -3.196369361877441406e+01 6.447110772132873535e-01 -2.109083652496337891e+00 6.447110772132873535e-01 -3.339593887329101562e+01
-3.229734802246093750e+01 9.418787002563476562e+00 -9.703825712203979492e-01 9.418787002563476562e+00 -2.847898674011230469e+01 6.166882514953613281e-01 -9.703825712203979492e-01 6.166882514953613281e-01 -4.000146484375000000e+01
3.697164058685302734e+00 2.517887115478515625e+00 2.928289890289306641e+00 2.517887115478515625e+00 -1.912669181823730469e+01 -3.931944608688354492e+00 2.928289890289306641e+00 -3.931944608688354492e+00 -1.551019287109375000e+01
-3.516177415847778320e+00 9.941287636756896973e-01 -6.530035495758056641e+00 9.941287636756896973e-01 -2.070674324035644531e+01 -3.189105033874511719e+00 -6.530035495758056641e+00 -3.189105033874511719e+00 -2.360709381103515625e+01
6.939242839813232422e+00 8.883489608764648438e+00 3.241229653358459473e-01 8.883489608764648438e+00 -1.653453063964843750e+01 -1.618609428405761719e+01 3.241229653358459473e-01 -1.618609428405761719e+01 -3.474185943603515625e+00
-1.998778915405273438e+01 1.624984931945800781e+01 2.647658157348632812e+01 1.624984931945800781e+01 -9.840649414062500000e+01 9.642895698547363281e+00 2.647658157348632812e+01 9.642895698547363281e+00 -6.853008270263671875e+01
-8.117410659790039062e+00 3.748759746551513672e+00 3.062895774841308594e+00 3.748759746551513672e+00 -1.352681446075439453e+01 1.116058826446533203e+01 3.062895774841308594e+00 1.116058826446533203e+01 -1.567906951904296875e+01
-7.701066017150878906e+00 8.105773329734802246e-01 1.206855678558349609e+01 8.105773329734802246e-01 -4.455114746093750000e+01 8.158671379089355469e+00 1.206855678558349609e+01 8.158671379089355469e+00 -4.524224853515625000e+01
-2.342069625854492188e+01 3.630096435546875000e+00 -2.080560684204101562e+00 3.630096435546875000e+00 -4.087535476684570312e+01 1.613635444641113281e+01 -2.080560684204101562e+00 1.613635444641113281e+01 -4.690766906738281250e+01
-2.202203750610351562e+01 -1.299373054504394531e+01 1.875603103637695312e+01 -1.299373054504394531e+01 -1.923643493652343750e+01 1.018473720550537109e+01 1.875603103637695312e+01 1.018473720550537109e+01 -4.676087570190429688e+01
-1.600326728820800781e+01 -5.027909755706787109e+00 1.242797851562500000e+01 -5.027909755706787109e+00 1.760778874158859253e-01 1.388191342353820801e+00 1.242797851562500000e+01 1.388191342353820801e+00 -3.680590057373046875e+01
-5.319444179534912109e+00 -1.253446292877197266e+01 1.489320635795593262e+00 -1.253446292877197266e+01 -3.556444549560546875e+01 1.308016300201416016e+00 1.489320635795593262e+00 1.308016300201416016e+00 -4.919110107421875000e+01
-5.773453116416931152e-01 -1.670305442810058594e+01 1.110755348205566406e+01 -1.670305442810058594e+01 -9.957612991333007812e+00 5.657341003417968750e+00 1.110755348205566406e+01 5.657341003417968750e+00 -2.521577262878417969e+01
-1.061730289459228516e+01 -5.811256408691406250e+00 -1.003315544128417969e+01 -5.811256408691406250e+00 -2.740747451782226562e+01 -8.123171806335449219e+00 -1.003315544128417969e+01 -8.123171806335449219e+00 -1.291971015930175781e+01
-2.496638679504394531e+01 -3.620437145233154297e+00 8.902360796928405762e-01 -3.620437145233154297e+00 -3.545365142822265625e+01 -2.687197446823120117e+00 8.902360796928405762e-01 -2.687197446823120117e+00 -5.869131088256835938e+01
-7.782527923583984375e+00 2.019580841064453125e+00 -2.872761726379394531e+00 2.019580841064453125e+00 -2.014423370361328125e+01 -5.366807937622070312e+00 -2.872761726379394531e+00 -5.366807937622070312e+00 -5.257167434692382812e+01
-6.526374816894531250e+01 -1.149116611480712891e+01 -1.593341469764709473e+00 -1.149116611480712891e+01 -4.780881118774414062e+01 5.734804630279541016e+00 -1.593341469764709473e+00 5.734804630279541016e+00 -7.213448333740234375e+01
-2.786880302429199219e+01 1.575231456756591797e+01 -9.324007987976074219e+00 1.575231456756591797e+01 -2.689041328430175781e+01 -1.348249149322509766e+01 -9.324007987976074219e+00 -1.348249149322509766e+01 -6.262918472290039062e+01
2.497215270996093750e+00 1.992952942848205566e+00 -1.095840740203857422e+01 1.992952942848205566e+00 1.420471763610839844e+01 -4.464701652526855469e+00 -1.095840740203857422e+01 -4.464701652526855469e+00 1.564035892486572266e+01
-1.089909839630126953e+01 1.934023094177246094e+01 1.912168383598327637e+00 1.934023094177246094e+01 -1.964041328430175781e+01 -6.171545982360839844e-01 1.912168383598327637e+00 -6.171545982360839844e-01 -2.496678161621093750e+01
-5.470892715454101562e+01 -7.521976947784423828e+00 6.338844776153564453e+00 -7.521976947784423828e+00 -4.559869766235351562e+01 1.775065422058105469e+01 6.338844776153564453e+00 1.775065422058105469e+01 -5.962160110473632812e+01
-3.221982955932617188e+01 -5.615894198417663574e-01 3.173228979110717773e+00 -5.615894198417663574e-01 -3.559274291992187500e+01 -1.008527851104736328e+01 3.173228979110717773e+00 -1.008527851104736328e+01 -3.887099456787109375e+01
-3.369580841064453125e+01 -7.456572055816650391e+00 2.912582159042358398e+00 -7.456572055816650391e+00 2.188069820404052734e+00 1.415093421936035156e+01 2.912582159042358398e+00 1.415093421936035156e+01 -4.353565216064453125e+01
-1.239652752876281738e+00 1.844158363342285156e+01 -8.959395408630371094e+00 1.844158363342285156e+01 -2.275310707092285156e+01 -1.199671506881713867e+00 -8.959395408630371094e+00 -1.199671506881713867e+00 9.719713211059570312e+00
5.484029769897460938e+00 -1.007577228546142578e+01 2.389884471893310547e+00 -1.007577228546142578e+01 -1.808668518066406250e+01 -1.899310302734375000e+01 2.389884471893310547e+00 -1.899310302734375000e+01 2.921528577804565430e+00
-3.847177886962890625e+01 -5.270924568176269531e+00 2.292692565917968750e+01 -5.270924568176269531e+00 -5.537350845336914062e+01 -1.191800594329833984e+01 2.292692565917968750e+01 -1.191800594329833984e+01 -6.464587402343750000e+01
-4.732467269897460938e+01 -1.635244750976562500e+01 -3.554986476898193359e+00 -1.635244750976562500e+01 -8.939966201782226562e+00 -9.238894462585449219e+00 -3.554986476898193359e+00 -9.238894462585449219e+00 -2.804368782043457031e+01
2.885551929473876953e+00 3.092638397216796875e+01 -1.409032642841339111e-01 3.092638397216796875e+01 -3.068464851379394531e+01 -9.948138236999511719e+00 -1.409032642841339111e-01 -9.948138236999511719e+00 -3.904156875610351562e+01
-5.007518768310546875e+01 -1.987096595764160156e+01 1.581845045089721680e+00 -1.987096595764160156e+01 -2.490121078491210938e+01 8.986710548400878906e+00 1.581845045089721680e+00 8.986710548400878906e+00 -4.873907089233398438e+01
-3.555379104614257812e+01 2.056181192398071289e+00 2.017298936843872070e+00 2.056181192398071289e+00 -5.108705902099609375e+01 5.386401414871215820e-01 2.017298936843872070e+00 5.386401414871215820e-01 -4.662739562988281250e+01
-5.754956722259521484e+00 -1.331985569000244141e+01 1.469274711608886719e+01 -1.331985569000244141e+01 -4.549476242065429688e+01 -7.092111110687255859e-01 1.469274711608886719e+01 -7.092111110687255859e-01 -6.908588409423828125e+01
-1.551663494110107422e+01 1.204346084594726562e+01 1.022954177856445312e+01 1.204346084594726562e+01 -5.529859161376953125e+01 5.937379360198974609e+00 1.022954177856445312e+01 5.937379360198974609e+00 -6.265226745605468750e+01
-5.773472595214843750e+01 1.629711508750915527e+00 -1.262458610534667969e+01 1.629711508750915527e+00 -6.048357009887695312e+00 -1.359833908081054688e+01 -1.262458610534667969e+01 -1.359833908081054688e+01 -1.780756759643554688e+01
-2.144558525085449219e+01 7.045205831527709961e-01 9.386273384094238281e+00 7.045205831527709961e-01 -1.160993003845214844e+01 1.448196649551391602e+00 9.386273384094238281e+00 1.448196649551391602e+00 -7.551386356353759766e+00
-3.373212051391601562e+01 -6.632258415222167969e+00 -9.753654479980468750e+00 -6.632258415222167969e+00 -3.326974487304687500e+01 9.173561096191406250e+00 -9.753654479980468750e+00 9.173561096191406250e+00 -3.840688323974609375e+01
-4.228040695190429688e+01 -9.393084526062011719e+00 -1.106149291992187500e+01 -9.393084526062011719e+00 -2.606061553955078125e+01 -1.835583877563476562e+01 -1.106149291992187500e+01 -1.835583877563476562e+01 -6.749382781982421875e+01
-2.216222000122070312e+01 3.886461257934570312e+00 -2.675561904907226562e+00 3.886461257934570312e+00 -1.227332878112792969e+01 -1.436331081390380859e+01 -2.675561904907226562e+00 -1.436331081390380859e+01 1.605265235900878906e+01
-2.589774131774902344e+00 -1.113177537918090820e+00 1.329490470886230469e+01 -1.113177537918090820e+00 -2.763413429260253906e+01 1.148485088348388672e+01 1.329490470886230469e+01 1.148485088348388672e+01 -3.661459732055664062e+01
-4.941685485839843750e+01 -6.001019954681396484e+00 9.816257655620574951e-02 -6.001019954681396484e+00 -2.236326026916503906e+01 7.535933256149291992e-01 9.816257655620574951e-02 7.535933256149291992e-01 -2.767286682128906250e+01
-3.039908981323242188e+01 2.306947708129882812e+01 -4.571394920349121094e-01 2.306947708129882812e+01 -1.812117958068847656e+01 -1.489460849761962891e+01 -4.571394920349121094e-01 -1.489460849761962891e+01 -3.009015655517578125e+01
-2.389881324768066406e+01 -8.099417090415954590e-01 -9.077295303344726562e+00 -8.099417090415954590e-01 -1.473768234252929688e+01 -1.169075679779052734e+01 -9.077295303344726562e+00 -1.169075679779052734e+01 -3.509563446044921875e+01
-1.104281139373779297e+01 6.008265018463134766e+00 9.478069305419921875e+00 6.008265018463134766e+00 -2.038471794128417969e+01 2.761459827423095703e+00 9.478069305419921875e+00 2.761459827423095703e+00 -3.001688003540039062e+01
-1.158917427062988281e+01 1.428081321716308594e+01 -2.019775152206420898e+00 1.428081321716308594e+01 -2.584090995788574219e+01 6.833396911621093750e+00 -2.019775152206420898e+00 6.833396911621093750e+00 -1.826092338562011719e+01
-2.974579811096191406e+01 -7.796036243438720703e+00 -1.425100135803222656e+01 -7.796036243438720703e+00 -3.968451690673828125e+01 -9.465149879455566406e+00 -1.425100135803222656e+01 -9.465149879455566406e+00 -3.632758331298828125e+01
-2.051675605773925781e+01 8.517345428466796875e+00 -1.249451637268066406e+01 8.517345428466796875e+00 -3.589070129394531250e+01 -3.898135423660278320e+00 -1.249451637268066406e+01 -3.898135423660278320e+00 -2.955168533325195312e+01