1.756699943542480469e+01 0.000000000000000000e+00 0.000000000000000000e+00 -3.589999973773956299e-01 1.811899948120117188e+01 0.000000000000000000e+00 -4.339999854564666748e-01 -5.400000140070915222e-02 1.789399909973144531e+01
1.745599937438964844e+01 0.000000000000000000e+00 0.000000000000000000e+00 -3.569999933242797852e-01 1.800499916076660156e+01 0.000000000000000000e+00 -4.309999942779541016e-01 -5.400000140070915222e-02 1.778100013732910156e+01
1.809000015258789062e+01 0.000000000000000000e+00 0.000000000000000000e+00 -3.700000047683715820e-01 1.865900039672851562e+01 0.000000000000000000e+00 -4.469999969005584717e-01 -5.600000172853469849e-02 1.842700004577636719e+01
1.803199958801269531e+01 0.000000000000000000e+00 0.000000000000000000e+00 -3.689999878406524658e-01 1.859900093078613281e+01 0.000000000000000000e+00 -4.449999928474426270e-01 -5.600000172853469849e-02 1.836800003051757812e+01
1.841300010681152344e+01 0.000000000000000000e+00 0.000000000000000000e+00 -3.759999871253967285e-01 1.899200057983398438e+01 0.000000000000000000e+00 -4.550000131130218506e-01 -5.700000002980232239e-02 1.875600051879882812e+01
1.825799942016601562e+01 0.000000000000000000e+00 0.000000000000000000e+00 -3.729999959468841553e-01 1.883200073242187500e+01 0.000000000000000000e+00 -4.510000050067901611e-01 -5.700000002980232239e-02 1.859799957275390625e+01
1.833099937438964844e+01 0.000000000000000000e+00 0.000000000000000000e+00 -3.750000000000000000e-01 1.890699958801269531e+01 0.000000000000000000e+00 -4.519999921321868896e-01 -5.700000002980232239e-02 1.867200088500976562e+01
1.861100006103515625e+01 0.000000000000000000e+00 0.000000000000000000e+00 -3.799999952316284180e-01 1.919599914550781250e+01 0.000000000000000000e+00 -4.589999914169311523e-01 -5.799999833106994629e-02 1.895800018310546875e+01
1.877499961853027344e+01 0.000000000000000000e+00 0.000000000000000000e+00 -3.840000033378601074e-01 1.936499977111816406e+01 0.000000000000000000e+00 -4.629999995231628418e-01 -5.799999833106994629e-02 1.912400054931640625e+01
1.855599975585937500e+01 0.000000000000000000e+00 0.000000000000000000e+00 -3.790000081062316895e-01 1.913999938964843750e+01 0.000000000000000000e+00 -4.580000042915344238e-01 -5.799999833106994629e-02 1.890200042724609375e+01
1.761100006103515625e+01 0.000000000000000000e+00 0.000000000000000000e+00 -3.600000143051147461e-01 1.816500091552734375e+01 0.000000000000000000e+00 -4.350000023841857910e-01 -5.499999970197677612e-02 1.793899917602539062e+01
1.776199913024902344e+01 0.000000000000000000e+00 0.000000000000000000e+00 -3.630000054836273193e-01 1.832099914550781250e+01 0.000000000000000000e+00 -4.379999935626983643e-01 -5.499999970197677612e-02 1.809300041198730469e+01
1.809799957275390625e+01 0.000000000000000000e+00 0.000000000000000000e+00 -3.700000047683715820e-01 1.866699981689453125e+01 0.000000000000000000e+00 -4.469999969005584717e-01 -5.600000172853469849e-02 1.843499946594238281e+01
1.828199958801269531e+01 0.000000000000000000e+00 0.000000000000000000e+00 -3.740000128746032715e-01 1.885700035095214844e+01 0.000000000000000000e+00 -4.510000050067901611e-01 -5.700000002980232239e-02 1.862199974060058594e+01
1.831500053405761719e+01 0.000000000000000000e+00 0.000000000000000000e+00 -3.740000128746032715e-01 1.889100074768066406e+01 0.000000000000000000e+00 -4.519999921321868896e-01 -5.700000002980232239e-02 1.865600013732910156e+01
1.788299942016601562e+01 0.000000000000000000e+00 0.000000000000000000e+00 -4.779999852180480957e-01 1.836599922180175781e+01 0.000000000000000000e+00 2.000000094994902611e-03 -2.820000052452087402e-01 1.866300010681152344e+01
1.768899917602539062e+01 0.000000000000000000e+00 0.000000000000000000e+00 -4.729999899864196777e-01 1.816600036621093750e+01 0.000000000000000000e+00 2.000000094994902611e-03 -2.790000140666961670e-01 1.845899963378906250e+01
1.793400001525878906e+01 0.000000000000000000e+00 0.000000000000000000e+00 -4.799999892711639404e-01 1.841799926757812500e+01 0.000000000000000000e+00 2.000000094994902611e-03 -2.829999923706054688e-01 1.871500015258789062e+01
1.785400009155273438e+01 0.000000000000000000e+00 0.000000000000000000e+00 -4.769999980926513672e-01 1.833499908447265625e+01 0.000000000000000000e+00 2.000000094994902611e-03 -2.820000052452087402e-01 1.863199996948242188e+01
1.797999954223632812e+01 0.000000000000000000e+00 0.000000000000000000e+00 -4.810000061988830566e-01 1.846500015258789062e+01 0.000000000000000000e+00 2.000000094994902611e-03 -2.840000092983245850e-01 1.876300048828125000e+01
1.810000038146972656e+01 0.000000000000000000e+00 0.000000000000000000e+00 -4.839999973773956299e-01 1.858900070190429688e+01 0.000000000000000000e+00 2.000000094994902611e-03 -2.860000133514404297e-01 1.888899993896484375e+01
1.826899909973144531e+01 0.000000000000000000e+00 0.000000000000000000e+00 -4.880000054836273193e-01 1.876199913024902344e+01 0.000000000000000000e+00 2.000000094994902611e-03 -2.879999876022338867e-01 1.906500053405761719e+01
1.831100082397460938e+01 0.000000000000000000e+00 0.000000000000000000e+00 -4.900000095367431641e-01 1.880500030517578125e+01 0.000000000000000000e+00 2.000000094994902611e-03 -2.890000045299530029e-01 1.910899925231933594e+01
1.822500038146972656e+01 0.000000000000000000e+00 0.000000000000000000e+00 -4.869999885559082031e-01 1.871599960327148438e+01 0.000000000000000000e+00 2.000000094994902611e-03 -2.879999876022338867e-01 1.901899909973144531e+01
1.802499961853027344e+01 0.000000000000000000e+00 0.000000000000000000e+00 -4.819999933242797852e-01 1.851199913024902344e+01 0.000000000000000000e+00 2.000000094994902611e-03 -2.840000092983245850e-01 1.881100082397460938e+01
1.829700088500976562e+01 0.000000000000000000e+00 0.000000000000000000e+00 -4.889999926090240479e-01 1.879100036621093750e+01 0.000000000000000000e+00 2.000000094994902611e-03 -2.890000045299530029e-01 1.909399986267089844e+01
1.834199905395507812e+01 0.000000000000000000e+00 0.000000000000000000e+00 -4.900000095367431641e-01 1.883699989318847656e+01 0.000000000000000000e+00 2.000000094994902611e-03 -2.890000045299530029e-01 1.914100074768066406e+01
1.834700012207031250e+01 0.000000000000000000e+00 0.000000000000000000e+00 -4.909999966621398926e-01 1.884199905395507812e+01 0.000000000000000000e+00 2.000000094994902611e-03 -2.899999916553497314e-01 1.914599990844726562e+01
1.798100090026855469e+01 0.000000000000000000e+00 0.000000000000000000e+00 -4.810000061988830566e-01 1.846599960327148438e+01 0.000000000000000000e+00 2.000000094994902611e-03 -2.840000092983245850e-01 1.876399993896484375e+01
1.826799964904785156e+01 0.000000000000000000e+00 0.000000000000000000e+00 -4.880000054836273193e-01 1.876099967956542969e+01 0.000000000000000000e+00 2.000000094994902611e-03 -2.879999876022338867e-01 1.906399917602539062e+01
1.834799957275390625e+01 0.000000000000000000e+00 0.000000000000000000e+00 -4.909999966621398926e-01 1.884300041198730469e+01 0.000000000000000000e+00 2.000000094994902611e-03 -2.899999916553497314e-01 1.914699935913085938e+01
1.834399986267089844e+01 0.000000000000000000e+00 0.000000000000000000e+00 -4.900000095367431641e-01 1.883900070190429688e+01 0.000000000000000000e+00 2.000000094994902611e-03 -2.890000045299530029e-01 1.914299964904785156e+01
1.815200042724609375e+01 0.000000000000000000e+00 0.000000000000000000e+00 -4.850000143051147461e-01 1.864200019836425781e+01 0.000000000000000000e+00 2.000000094994902611e-03 -2.860000133514404297e-01 1.894300079345703125e+01
1.761899948120117188e+01 0.000000000000000000e+00 0.000000000000000000e+00 3.400000184774398804e-02 1.765399932861328125e+01 0.000000000000000000e+00 4.500000178813934326e-02 2.169999927282333374e-01 1.753700065612792969e+01
1.764699935913085938e+01 0.000000000000000000e+00 0.000000000000000000e+00 3.400000184774398804e-02 1.768199920654296875e+01 0.000000000000000000e+00 4.500000178813934326e-02 2.169999927282333374e-01 1.756399917602539062e+01
1.835600090026855469e+01 0.000000000000000000e+00 0.000000000000000000e+00 3.500000014901161194e-02 1.839200019836425781e+01 0.000000000000000000e+00 4.600000008940696716e-02 2.259999960660934448e-01 1.826899909973144531e+01
1.818300056457519531e+01 0.000000000000000000e+00 0.000000000000000000e+00 3.500000014901161194e-02 1.821899986267089844e+01 0.000000000000000000e+00 4.600000008940696716e-02 2.240000069141387939e-01 1.809799957275390625e+01
1.831599998474121094e+01 0.000000000000000000e+00 0.000000000000000000e+00 3.500000014901161194e-02 1.835300064086914062e+01 0.000000000000000000e+00 4.600000008940696716e-02 2.259999960660934448e-01 1.822999954223632812e+01
1.870199966430664062e+01 0.000000000000000000e+00 0.000000000000000000e+00 3.599999845027923584e-02 1.873900032043457031e+01 0.000000000000000000e+00 4.699999839067459106e-02 2.300000041723251343e-01 1.861499977111816406e+01
1.886000061035156250e+01 0.000000000000000000e+00 0.000000000000000000e+00 3.599999845027923584e-02 1.889699935913085938e+01 0.000000000000000000e+00 4.800000041723251343e-02 2.319999933242797852e-01 1.877099990844726562e+01
1.900799942016601562e+01 0.000000000000000000e+00 0.000000000000000000e+00 3.599999845027923584e-02 1.904599952697753906e+01 0.000000000000000000e+00 4.800000041723251343e-02 2.339999973773956299e-01 1.891900062561035156e+01
1.915399932861328125e+01 0.000000000000000000e+00 0.000000000000000000e+00 3.599999845027923584e-02 1.919199943542480469e+01 0.000000000000000000e+00 4.800000041723251343e-02 2.360000014305114746e-01 1.906399917602539062e+01
1.846100044250488281e+01 0.000000000000000000e+00 0.000000000000000000e+00 3.500000014901161194e-02 1.849799919128417969e+01 0.000000000000000000e+00 4.699999839067459106e-02 2.269999980926513672e-01 1.837500000000000000e+01
1.850300025939941406e+01 0.000000000000000000e+00 0.000000000000000000e+00 3.500000014901161194e-02 1.854000091552734375e+01 0.000000000000000000e+00 4.699999839067459106e-02 2.280000001192092896e-01 1.841699981689453125e+01
1.861499977111816406e+01 0.000000000000000000e+00 0.000000000000000000e+00 3.500000014901161194e-02 1.865200042724609375e+01 0.000000000000000000e+00 4.699999839067459106e-02 2.290000021457672119e-01 1.852700042724609375e+01
1.756699943542480469e+01 0.000000000000000000e+00 0.000000000000000000e+00 1.120000034570693970e-01 1.742099952697753906e+01 0.000000000000000000e+00 2.829999923706054688e-01 -8.900000154972076416e-02 1.810799980163574219e+01
1.801199913024902344e+01 0.000000000000000000e+00 0.000000000000000000e+00 1.150000020861625671e-01 1.786199951171875000e+01 0.000000000000000000e+00 2.899999916553497314e-01 -9.200000017881393433e-02 1.856699943542480469e+01
1.800799942016601562e+01 0.000000000000000000e+00 0.000000000000000000e+00 1.150000020861625671e-01 1.785899925231933594e+01 0.000000000000000000e+00 2.899999916553497314e-01 -9.200000017881393433e-02 1.856299972534179688e+01
1.831500053405761719e+01 0.000000000000000000e+00 0.000000000000000000e+00 1.169999986886978149e-01 1.816300010681152344e+01 0.000000000000000000e+00 2.949999868869781494e-01 -9.300000220537185669e-02 1.887899971008300781e+01
1.873999977111816406e+01 0.000000000000000000e+00 0.000000000000000000e+00 1.190000027418136597e-01 1.858399963378906250e+01 0.000000000000000000e+00 3.019999861717224121e-01 -9.499999880790710449e-02 1.931699943542480469e+01
1.849600028991699219e+01 0.000000000000000000e+00 0.000000000000000000e+00 1.180000007152557373e-01 1.834199905395507812e+01 0.000000000000000000e+00 2.980000078678131104e-01 -9.399999678134918213e-02 1.906599998474121094e+01
1.883900070190429688e+01 0.000000000000000000e+00 0.000000000000000000e+00 1.199999973177909851e-01 1.868300056457519531e+01 0.000000000000000000e+00 3.030000030994415283e-01 -9.600000083446502686e-02 1.941900062561035156e+01
1.871199989318847656e+01 0.000000000000000000e+00 0.000000000000000000e+00 1.190000027418136597e-01 1.855699920654296875e+01 0.000000000000000000e+00 3.009999990463256836e-01 -9.499999880790710449e-02 1.928899955749511719e+01
1.865099906921386719e+01 0.000000000000000000e+00 0.000000000000000000e+00 1.190000027418136597e-01 1.849699974060058594e+01 0.000000000000000000e+00 3.000000119209289551e-01 -9.499999880790710449e-02 1.922599983215332031e+01
1.866900062561035156e+01 0.000000000000000000e+00 0.000000000000000000e+00 1.190000027418136597e-01 1.851399993896484375e+01 0.000000000000000000e+00 3.009999990463256836e-01 -9.499999880790710449e-02 1.924399948120117188e+01
1.845299911499023438e+01 0.000000000000000000e+00 0.000000000000000000e+00 1.180000007152557373e-01 1.829999923706054688e+01 0.000000000000000000e+00 2.969999909400939941e-01 -9.399999678134918213e-02 1.902099990844726562e+01
1.843199920654296875e+01 0.000000000000000000e+00 0.000000000000000000e+00 1.180000007152557373e-01 1.827899932861328125e+01 0.000000000000000000e+00 2.969999909400939941e-01 -9.399999678134918213e-02 1.900000000000000000e+01
1.779899978637695312e+01 0.000000000000000000e+00 0.000000000000000000e+00 0.000000000000000000e+00 1.779899978637695312e+01 0.000000000000000000e+00 0.000000000000000000e+00 0.000000000000000000e+00 1.779899978637695312e+01
1.832099914550781250e+01 0.000000000000000000e+00 0.000000000000000000e+00 0.000000000000000000e+00 1.832099914550781250e+01 0.000000000000000000e+00 0.000000000000000000e+00 0.000000000000000000e+00 1.832099914550781250e+01
1.821299934387207031e+01 0.000000000000000000e+00 0.000000000000000000e+00 0.000000000000000000e+00 1.821299934387207031e+01 0.000000000000000000e+00 0.000000000000000000e+00 0.000000000000000000e+00 1.821299934387207031e+01
1.863299942016601562e+01 0.000000000000000000e+00 0.000000000000000000e+00 0.000000000000000000e+00 1.863299942016601562e+01 0.000000000000000000e+00 0.000000000000000000e+00 0.000000000000000000e+00 1.863299942016601562e+01
1.865699958801269531e+01 0.000000000000000000e+00 0.000000000000000000e+00 0.000000000000000000e+00 1.865699958801269531e+01 0.000000000000000000e+00 0.000000000000000000e+00 0.000000000000000000e+00 1.865699958801269531e+01
1.882200050354003906e+01 0.000000000000000000e+00 0.000000000000000000e+00 0.000000000000000000e+00 1.882200050354003906e+01 0.000000000000000000e+00 0.000000000000000000e+00 0.000000000000000000e+00 1.882200050354003906e+01
1.882200050354003906e+01 0.000000000000000000e+00 0.000000000000000000e+00 0.000000000000000000e+00 1.882200050354003906e+01 0.000000000000000000e+00 0.000000000000000000e+00 0.000000000000000000e+00 1.882200050354003906e+01
1.901899909973144531e+01 0.000000000000000000e+00 0.000000000000000000e+00 0.000000000000000000e+00 1.901899909973144531e+01 0.000000000000000000e+00 0.000000000000000000e+00 0.000000000000000000e+00 1.901899909973144531e+01
1.882500076293945312e+01 0.000000000000000000e+00 0.000000000000000000e+00 0.000000000000000000e+00 1.882500076293945312e+01 0.000000000000000000e+00 0.000000000000000000e+00 0.000000000000000000e+00 1.882500076293945312e+01
1.916399955749511719e+01 0.000000000000000000e+00 0.000000000000000000e+00 0.000000000000000000e+00 1.916399955749511719e+01 0.000000000000000000e+00 0.000000000000000000e+00 0.000000000000000000e+00 1.916399955749511719e+01
1.903899955749511719e+01 0.000000000000000000e+00 0.000000000000000000e+00 0.000000000000000000e+00 1.903899955749511719e+01 0.000000000000000000e+00 0.000000000000000000e+00 0.000000000000000000e+00 1.903899955749511719e+01
1.899799919128417969e+01 0.000000000000000000e+00 0.000000000000000000e+00 0.000000000000000000e+00 1.899799919128417969e+01 0.000000000000000000e+00 0.000000000000000000e+00 0.000000000000000000e+00 1.899799919128417969e+01
1.863299942016601562e+01 0.000000000000000000e+00 0.000000000000000000e+00 0.000000000000000000e+00 1.863299942016601562e+01 0.000000000000000000e+00 0.000000000000000000e+00 0.000000000000000000e+00 1.863299942016601562e+01
1.848600006103515625e+01 0.000000000000000000e+00 0.000000000000000000e+00 0.000000000000000000e+00 1.848600006103515625e+01 0.000000000000000000e+00 0.000000000000000000e+00 0.000000000000000000e+00 1.848600006103515625e+01
1.862700080871582031e+01 0.000000000000000000e+00 0.000000000000000000e+00 0.000000000000000000e+00 1.862700080871582031e+01 0.000000000000000000e+00 0.000000000000000000e+00 0.000000000000000000e+00 1.862700080871582031e+01
1.757500076293945312e+01 0.000000000000000000e+00 0.000000000000000000e+00 2.890000045299530029e-01 1.759000015258789062e+01 0.000000000000000000e+00 -1.159999966621398926e-01 4.939999878406524658e-01 1.752599906921386719e+01
1.803100013732910156e+01 0.000000000000000000e+00 0.000000000000000000e+00 2.960000038146972656e-01 1.804700088500976562e+01 0.000000000000000000e+00 -1.190000027418136597e-01 5.070000290870666504e-01 1.798200035095214844e+01
1.804899978637695312e+01 0.000000000000000000e+00 0.000000000000000000e+00 2.960000038146972656e-01 1.806399917602539062e+01 0.000000000000000000e+00 -1.190000027418136597e-01 5.070000290870666504e-01 1.799900054931640625e+01
1.800200080871582031e+01 0.000000000000000000e+00 0.000000000000000000e+00 2.960000038146972656e-01 1.801700019836425781e+01 0.000000000000000000e+00 -1.190000027418136597e-01 5.059999823570251465e-01 1.795199966430664062e+01
1.811700057983398438e+01 0.000000000000000000e+00 0.000000000000000000e+00 2.980000078678131104e-01 1.813299942016601562e+01 0.000000000000000000e+00 -1.199999973177909851e-01 5.090000033378601074e-01 1.806699943542480469e+01
1.819899940490722656e+01 0.000000000000000000e+00 0.000000000000000000e+00 2.989999949932098389e-01 1.821500015258789062e+01 0.000000000000000000e+00 -1.199999973177909851e-01 5.109999775886535645e-01 1.814900016784667969e+01
1.861199951171875000e+01 0.000000000000000000e+00 0.000000000000000000e+00 3.059999942779541016e-01 1.862800025939941406e+01 0.000000000000000000e+00 -1.230000033974647522e-01 5.230000019073486328e-01 1.856100082397460938e+01
1.865999984741210938e+01 0.000000000000000000e+00 0.000000000000000000e+00 3.059999942779541016e-01 1.867600059509277344e+01 0.000000000000000000e+00 -1.230000033974647522e-01 5.239999890327453613e-01 1.860799980163574219e+01
1.869000053405761719e+01 0.000000000000000000e+00 0.000000000000000000e+00 3.070000112056732178e-01 1.870599937438964844e+01 0.000000000000000000e+00 -1.230000033974647522e-01 5.249999761581420898e-01 1.863800048828125000e+01
1.857399940490722656e+01 0.000000000000000000e+00 0.000000000000000000e+00 3.050000071525573730e-01 1.859000015258789062e+01 0.000000000000000000e+00 -1.230000033974647522e-01 5.220000147819519043e-01 1.852300071716308594e+01
1.868000030517578125e+01 0.000000000000000000e+00 0.000000000000000000e+00 3.070000112056732178e-01 1.869599914550781250e+01 0.000000000000000000e+00 -1.230000033974647522e-01 5.249999761581420898e-01 1.862800025939941406e+01
1.845000076293945312e+01 0.000000000000000000e+00 0.000000000000000000e+00 3.030000030994415283e-01 1.846599960327148438e+01 0.000000000000000000e+00 -1.220000013709068298e-01 5.189999938011169434e-01 1.839900016784667969e+01
1.864200019836425781e+01 0.000000000000000000e+00 0.000000000000000000e+00 3.059999942779541016e-01 1.865800094604492188e+01 0.000000000000000000e+00 -1.230000033974647522e-01 5.239999890327453613e-01 1.859000015258789062e+01
1.877599906921386719e+01 0.000000000000000000e+00 0.000000000000000000e+00 3.079999983310699463e-01 1.879199981689453125e+01 0.000000000000000000e+00 -1.239999979734420776e-01 5.279999971389770508e-01 1.872400093078613281e+01
1.872900009155273438e+01 0.000000000000000000e+00 0.000000000000000000e+00 3.079999983310699463e-01 1.874500083923339844e+01 0.000000000000000000e+00 -1.239999979734420776e-01 5.260000228881835938e-01 1.867700004577636719e+01
1.883399963378906250e+01 0.000000000000000000e+00 0.000000000000000000e+00 3.089999854564666748e-01 1.885000038146972656e+01 0.000000000000000000e+00 -1.239999979734420776e-01 5.289999842643737793e-01 1.878199958801269531e+01
1.876000022888183594e+01 0.000000000000000000e+00 0.000000000000000000e+00 3.079999983310699463e-01 1.877599906921386719e+01 0.000000000000000000e+00 -1.239999979734420776e-01 5.270000100135803223e-01 1.870800018310546875e+01
1.875900077819824219e+01 0.000000000000000000e+00 0.000000000000000000e+00 3.079999983310699463e-01 1.877499961853027344e+01 0.000000000000000000e+00 -1.239999979734420776e-01 5.270000100135803223e-01 1.870700073242187500e+01
1.824900054931640625e+01 0.000000000000000000e+00 0.000000000000000000e+00 2.259999960660934448e-01 1.797100067138671875e+01 0.000000000000000000e+00 7.999999821186065674e-02 -4.539999961853027344e-01 1.754999923706054688e+01
1.835899925231933594e+01 0.000000000000000000e+00 0.000000000000000000e+00 2.280000001192092896e-01 1.807900047302246094e+01 0.000000000000000000e+00 8.100000023841857910e-02 -4.569999873638153076e-01 1.765600013732910156e+01
1.797400093078613281e+01 0.000000000000000000e+00 0.000000000000000000e+00 2.230000048875808716e-01 1.770000076293945312e+01 0.000000000000000000e+00 7.900000363588333130e-02 -4.469999969005584717e-01 1.728599929809570312e+01
1.877199935913085938e+01 0.000000000000000000e+00 0.000000000000000000e+00 2.329999953508377075e-01 1.848600006103515625e+01 0.000000000000000000e+00 8.299999684095382690e-02 -4.670000076293945312e-01 1.805299949645996094e+01
1.877099990844726562e+01 0.000000000000000000e+00 0.000000000000000000e+00 2.329999953508377075e-01 1.848500061035156250e+01 0.000000000000000000e+00 8.299999684095382690e-02 -4.670000076293945312e-01 1.805200004577636719e+01
1.800300025939941406e+01 0.000000000000000000e+00 0.000000000000000000e+00 2.230000048875808716e-01 1.772900009155273438e+01 0.000000000000000000e+00 7.900000363588333130e-02 -4.480000138282775879e-01 1.731399917602539062e+01
1.871899986267089844e+01 0.000000000000000000e+00 0.000000000000000000e+00 2.319999933242797852e-01 1.843400001525878906e+01 0.000000000000000000e+00 8.200000226497650146e-02 -4.650000035762786865e-01 1.800300025939941406e+01
1.893199920654296875e+01 0.000000000000000000e+00 0.000000000000000000e+00 2.349999994039535522e-01 1.864299964904785156e+01 0.000000000000000000e+00 8.299999684095382690e-02 -4.709999859333038330e-01 1.820700073242187500e+01
1.871999931335449219e+01 0.000000000000000000e+00 0.000000000000000000e+00 2.319999933242797852e-01 1.843499946594238281e+01 0.000000000000000000e+00 8.200000226497650146e-02 -4.659999907016754150e-01 1.800399971008300781e+01
1.885000038146972656e+01 0.000000000000000000e+00 0.000000000000000000e+00 2.339999973773956299e-01 1.856299972534179688e+01 0.000000000000000000e+00 8.299999684095382690e-02 -4.690000116825103760e-01 1.812899971008300781e+01
1.885499954223632812e+01 0.000000000000000000e+00 0.000000000000000000e+00 2.339999973773956299e-01 1.856800079345703125e+01 0.000000000000000000e+00 8.299999684095382690e-02 -4.690000116825103760e-01 1.813299942016601562e+01
1.891500091552734375e+01 0.000000000000000000e+00 0.000000000000000000e+00 2.339999973773956299e-01 1.862700080871582031e+01 0.000000000000000000e+00 8.299999684095382690e-02 -4.699999988079071045e-01 1.819099998474121094e+01
1.749200057983398438e+01 0.000000000000000000e+00 0.000000000000000000e+00 -4.690000116825103760e-01 1.792000007629394531e+01 0.000000000000000000e+00 -3.230000138282775879e-01 -3.619999885559082031e-01 1.776399993896484375e+01
1.743300056457519531e+01 0.000000000000000000e+00 0.000000000000000000e+00 -4.679999947547912598e-01 1.786000061035156250e+01 0.000000000000000000e+00 -3.219999969005584717e-01 -3.610000014305114746e-01 1.770400047302246094e+01
1.739200019836425781e+01 0.000000000000000000e+00 0.000000000000000000e+00 -4.659999907016754150e-01 1.781699943542480469e+01 0.000000000000000000e+00 -3.210000097751617432e-01 -3.600000143051147461e-01 1.766200065612792969e+01
1.748500061035156250e+01 0.000000000000000000e+00 0.000000000000000000e+00 -4.690000116825103760e-01 1.791200065612792969e+01 0.000000000000000000e+00 -3.230000138282775879e-01 -3.619999885559082031e-01 1.775600051879882812e+01
1.754000091552734375e+01 0.000000000000000000e+00 0.000000000000000000e+00 -4.699999988079071045e-01 1.796800041198730469e+01 0.000000000000000000e+00 -3.240000009536743164e-01 -3.630000054836273193e-01 1.781200027465820312e+01
1.816300010681152344e+01 0.000000000000000000e+00 0.000000000000000000e+00 -4.869999885559082031e-01 1.860700035095214844e+01 0.000000000000000000e+00 -3.350000083446502686e-01 -3.759999871253967285e-01 1.844499969482421875e+01
1.808600044250488281e+01 0.000000000000000000e+00 0.000000000000000000e+00 -4.850000143051147461e-01 1.852799987792968750e+01 0.000000000000000000e+00 -3.339999914169311523e-01 -3.740000128746032715e-01 1.836700057983398438e+01
1.826600074768066406e+01 0.000000000000000000e+00 0.000000000000000000e+00 -4.900000095367431641e-01 1.871199989318847656e+01 0.000000000000000000e+00 -3.370000123977661133e-01 -3.779999911785125732e-01 1.854999923706054688e+01
1.840800094604492188e+01 0.000000000000000000e+00 0.000000000000000000e+00 -4.939999878406524658e-01 1.885799980163574219e+01 0.000000000000000000e+00 -3.400000035762786865e-01 -3.810000121593475342e-01 1.869400024414062500e+01
1.892700004577636719e+01 0.000000000000000000e+00 0.000000000000000000e+00 -5.080000162124633789e-01 1.938999938964843750e+01 0.000000000000000000e+00 -3.499999940395355225e-01 -3.919999897480010986e-01 1.922100067138671875e+01
1.875200080871582031e+01 0.000000000000000000e+00 0.000000000000000000e+00 -5.030000209808349609e-01 1.920999908447265625e+01 0.000000000000000000e+00 -3.459999859333038330e-01 -3.880000114440917969e-01 1.904400062561035156e+01
1.853599929809570312e+01 0.000000000000000000e+00 0.000000000000000000e+00 -4.970000088214874268e-01 1.898900032043457031e+01 0.000000000000000000e+00 -3.420000076293945312e-01 -3.840000033378601074e-01 1.882399940490722656e+01
1.867099952697753906e+01 0.000000000000000000e+00 0.000000000000000000e+00 -5.009999871253967285e-01 1.912800025939941406e+01 0.000000000000000000e+00 -3.449999988079071045e-01 -3.860000073909759521e-01 1.896100044250488281e+01
1.858200073242187500e+01 0.000000000000000000e+00 0.000000000000000000e+00 -4.979999959468841553e-01 1.903700065612792969e+01 0.000000000000000000e+00 -3.429999947547912598e-01 -3.849999904632568359e-01 1.887100028991699219e+01
1.850099945068359375e+01 0.000000000000000000e+00 0.000000000000000000e+00 -4.959999918937683105e-01 1.895400047302246094e+01 0.000000000000000000e+00 -3.420000076293945312e-01 -3.829999864101409912e-01 1.878899955749511719e+01
1.759600067138671875e+01 0.000000000000000000e+00 0.000000000000000000e+00 1.280000060796737671e-01 1.797299957275390625e+01 0.000000000000000000e+00 -4.709999859333038330e-01 4.790000021457672119e-01 1.737299919128417969e+01
1.839399909973144531e+01 0.000000000000000000e+00 0.000000000000000000e+00 1.340000033378601074e-01 1.878700065612792969e+01 0.000000000000000000e+00 -4.930000007152557373e-01 5.009999871253967285e-01 1.815999984741210938e+01
1.808900070190429688e+01 0.000000000000000000e+00 0.000000000000000000e+00 1.319999992847442627e-01 1.847599983215332031e+01 0.000000000000000000e+00 -4.850000143051147461e-01 4.920000135898590088e-01 1.785899925231933594e+01
1.836300086975097656e+01 0.000000000000000000e+00 0.000000000000000000e+00 1.340000033378601074e-01 1.875600051879882812e+01 0.000000000000000000e+00 -4.920000135898590088e-01 5.000000000000000000e-01 1.812999916076660156e+01
1.837999916076660156e+01 0.000000000000000000e+00 0.000000000000000000e+00 1.340000033378601074e-01 1.877300071716308594e+01 0.000000000000000000e+00 -4.920000135898590088e-01 5.000000000000000000e-01 1.814599990844726562e+01
1.847699928283691406e+01 0.000000000000000000e+00 0.000000000000000000e+00 1.340000033378601074e-01 1.887299919128417969e+01 0.000000000000000000e+00 -4.950000047683715820e-01 5.030000209808349609e-01 1.824300003051757812e+01
1.881699943542480469e+01 0.000000000000000000e+00 0.000000000000000000e+00 1.369999945163726807e-01 1.921899986267089844e+01 0.000000000000000000e+00 -5.040000081062316895e-01 5.120000243186950684e-01 1.857799911499023438e+01
1.873100090026855469e+01 0.000000000000000000e+00 0.000000000000000000e+00 1.360000073909759521e-01 1.913199996948242188e+01 0.000000000000000000e+00 -5.019999742507934570e-01 5.099999904632568359e-01 1.849399948120117188e+01
1.864299964904785156e+01 0.000000000000000000e+00 0.000000000000000000e+00 1.360000073909759521e-01 1.904199981689453125e+01 0.000000000000000000e+00 -4.990000128746032715e-01 5.070000290870666504e-01 1.840600013732910156e+01
1.866200065612792969e+01 0.000000000000000000e+00 0.000000000000000000e+00 1.360000073909759521e-01 1.906100082397460938e+01 0.000000000000000000e+00 -5.000000000000000000e-01 5.080000162124633789e-01 1.842499923706054688e+01
1.860700035095214844e+01 0.000000000000000000e+00 0.000000000000000000e+00 1.350000053644180298e-01 1.900499916076660156e+01 0.000000000000000000e+00 -4.990000128746032715e-01 5.059999823570251465e-01 1.837100028991699219e+01
1.875699996948242188e+01 0.000000000000000000e+00 0.000000000000000000e+00 1.360000073909759521e-01 1.915800094604492188e+01 0.000000000000000000e+00 -5.030000209808349609e-01 5.109999775886535645e-01 1.851899909973144531e+01
1.906299972534179688e+01 0.000000000000000000e+00 0.000000000000000000e+00 1.389999985694885254e-01 1.947100067138671875e+01 0.000000000000000000e+00 -5.109999775886535645e-01 5.189999938011169434e-01 1.882099914550781250e+01
1.894899940490722656e+01 0.000000000000000000e+00 0.000000000000000000e+00 1.379999965429306030e-01 1.935400009155273438e+01 0.000000000000000000e+00 -5.080000162124633789e-01 5.159999728202819824e-01 1.870800018310546875e+01
1.895499992370605469e+01 0.000000000000000000e+00 0.000000000000000000e+00 1.379999965429306030e-01 1.936000061035156250e+01 0.000000000000000000e+00 -5.080000162124633789e-01 5.159999728202819824e-01 1.871400070190429688e+01