6.081820964813232422e+00 7.708819866180419922e+00 9.363827705383300781e+00 1.478862094879150391e+01 1.710049057006835938e+01 5.236598014831542969e+00 3.726351022720336914e+00 1.113239002227783203e+01 3.229758024215698242e+00 7.329771041870117188e+00 1.095629024505615234e+01 6.485589742660522461e-01 9.141700744628906250e+00 1.720458984375000000e+01 2.224977970123291016e+00 3.760761022567749023e+00 8.397549629211425781e+00 1.641465759277343750e+01 4.149651050567626953e+00 4.932650089263916016e+00 8.100487709045410156e+00 2.509591102600097656e+00 6.005979776382446289e-01 9.018757820129394531e+00 1.260251045227050781e+00 3.547719955444335938e+00 3.757817983627319336e+00 1.159211039543151855e+00 1.251478958129882812e+01 2.723488092422485352e+00 1.490552139282226562e+01 2.247329950332641602e+00 1.775755882263183594e+01 1.623262023925781250e+01 1.752788925170898438e+01 9.571018218994140625e+00 4.677851200103759766e+00 1.120359039306640625e+01 1.342985820770263672e+01 1.070702075958251953e+01 8.264220237731933594e+00 2.577687978744506836e+00 9.428661346435546875e+00 2.517299890518188477e+00 1.641165733337402344e+01 8.078451156616210938e+00 2.754400014877319336e+00 1.279985809326171875e+01 8.680790901184082031e+00 7.839910030364990234e+00 1.498170047998428345e-01 -7.207299768924713135e-02 3.956909894943237305e+00 1.527895832061767578e+01 1.648652076721191406e+01 1.442319011688232422e+01 3.440780043601989746e-01 5.085401058197021484e+00 7.240719795227050781e+00 1.371055793762207031e+01 1.000564098358154297e+01 1.671648979187011719e+01 1.288245773315429688e+01 1.636852073669433594e+01 5.747839927673339844e+00 1.191875839233398438e+01 6.600551128387451172e+00 1.459389019012451172e+01 1.680915832519531250e+01 2.256990909576416016e+00 1.141199016571044922e+01 1.530365753173828125e+01 5.984979867935180664e-01 4.265240192413330078e+00 7.409667968750000000e+00 3.242630958557128906e+00 5.298550128936767578e+00 1.425717949867248535e+00 5.776861190795898438e+00 7.403319835662841797e+00 3.727848052978515625e+00 3.481540918350219727e+00 1.129250049591064453e+00 4.906248092651367188e+00 1.174832057952880859e+01 1.146669006347656250e+01 1.178405761718750000e+01 5.658821105957031250e+00 1.432618999481201172e+01 2.871458053588867188e+00 1.670372009277343750e+01 1.055498981475830078e+01 5.589707851409912109e+00 5.611970901489257812e+00 1.116979026794433594e+01 6.339067935943603516e+00 5.894410014152526855e-01 1.315909004211425781e+01 9.199658393859863281e+00 7.974330902099609375e+00 1.036919021606445312e+01 1.206215763092041016e+01 4.992421150207519531e+00 2.354069948196411133e-01 1.164535808563232422e+01 6.003701210021972656e+00 1.631409072875976562e+01 7.123318195343017578e+00 -3.408769965171813965e-01 1.429448986053466797e+01 1.278475761413574219e+01 1.532162094116210938e+01 1.145858955383300781e+01 1.122225761413574219e+01 1.609062194824218750e+01 2.355600118637084961e+00 3.395158052444458008e+00 5.849761009216308594e+00 9.523869752883911133e-01 1.807327985763549805e+00 8.132591247558593750e+00 1.220289039611816406e+01 1.516715812683105469e+01 -3.998199850320816040e-02 7.655529975891113281e+00 1.775245857238769531e+01 1.349082088470458984e+01 6.220210194587707520e-01 1.461045837402343750e+01 3.784521102905273438e+00 3.595720052719116211e+00 1.328625774383544922e+01 4.212300777435302734e+00 1.643559074401855469e+01 1.337267994880676270e+00 1.452832126617431641e+01 3.173320055007934570e+00 7.298667907714843750e+00 3.498740911483764648e+00 1.161419010162353516e+01 9.731847763061523438e+00 1.257630944252014160e+00 1.553779029846191406e+01 1.658495712280273438e+01 1.446822071075439453e+01 1.695539093017578125e+01 6.961550116539001465e-01 9.996170997619628906e+00 1.245878982543945312e+01 4.014488220214843750e+00 7.673850059509277344e-01 8.138689994812011719e+00 1.081945800781250000e+01 2.025871038436889648e+00 2.753669977188110352e+00 1.774525833129882812e+01 1.221482086181640625e+01 4.188950061798095703e+00 9.841917991638183594e+00 1.088092136383056641e+01 5.910130023956298828e+00 5.933457851409912109e+00 1.142702102661132812e+01 3.479769945144653320e+00 2.980878114700317383e+00 1.531272125244140625e+01 1.700710058212280273e+00 1.287095832824707031e+01 1.256832122802734375e+01 1.535978984832763672e+01 1.125855827331542969e+01 1.132230013608932495e-01 1.452009010314941406e+01 5.732878208160400391e+00 6.620211124420166016e+00 1.088439941406250000e+00 8.785617828369140625e+00 1.838940978050231934e+00 8.177399635314941406e+00 7.260067939758300781e+00 1.400112056732177734e+01 1.489888954162597656e+01 1.396285820007324219e+01 1.370112133026123047e+01 5.458049774169921875e+00 1.692075729370117188e+01 8.363350868225097656e+00 2.229069948196411133e+00 4.601228237152099609e+00 7.238436222076416016e+00 3.942555904388427734e+00 5.026499927043914795e-02 1.051252079010009766e+01 1.562228965759277344e+01 1.570825767517089844e+01 1.663892173767089844e+01 1.004924964904785156e+01 1.547065830230712891e+01 1.225022125244140625e+01 1.523069000244140625e+01 2.360177993774414062e+00 8.733671188354492188e+00 7.469759941101074219e+00 1.511915779113769531e+01 8.957160949707031250e+00 1.017488956451416016e+01 5.857538223266601562e+00 4.335500001907348633e-01 7.355629920959472656e+00 4.191648006439208984e+00 1.348612117767333984e+01 1.412139034271240234e+01 7.866347789764404297e+00 8.040270805358886719e+00 3.977230072021484375e+00 8.527647972106933594e+00 1.458462142944335938e+01 8.412500381469726562e+00 1.065428972244262695e+00 1.465042114257812500e+01 7.069489955902099609e+00 5.901278018951416016e+00 1.295052146911621094e+01 1.216168975830078125e+01 5.366678237915039062e+00 1.203442096710205078e+01 -1.141699962317943573e-02 4.828067779541015625e+00 9.400940895080566406e+00 1.345639038085937500e+01 8.547178268432617188e+00 3.582061052322387695e+00 1.501239013671875000e+01 6.091517925262451172e+00 5.849441051483154297e+00 1.469099044799804688e+01 1.029275798797607422e+01 1.151112079620361328e+01 5.321219921112060547e+00 1.375805759429931641e+01 1.017642116546630859e+01 8.829710006713867188e+00 9.076767921447753906e+00 1.052659973502159119e-01 1.804227256774902344e+01 1.393445777893066406e+01 1.000739097595214844e+01 1.756678962707519531e+01 8.026437759399414062e+00 6.465850830078125000e+00 1.795158958435058594e+01 1.523425769805908203e+01 1.122462081909179688e+01 1.081739044189453125e+01 1.627485847473144531e+01 4.097140789031982422e+00 1.546658992767333984e+01 1.503965759277343750e+01 1.365252113342285156e+01 8.706830024719238281e+00 9.156547546386718750e+00 1.420532131195068359e+01 8.769109725952148438e+00 1.381315803527832031e+01 7.917130947113037109e+00 1.469248962402343750e+01 4.815467834472656250e+00 6.246839761734008789e-01 1.659929084777832031e+01 3.052397966384887695e+00 1.393342113494873047e+01 1.203318977355957031e+01 1.417027950286865234e+00 5.623890876770019531e+00 4.050290107727050781e+00 2.675957918167114258e+00 3.730211019515991211e+00 5.411139965057373047e+00 5.072257995605468750e+00 6.171131134033203125e+00 5.092659950256347656e+00 1.118135833740234375e+01 5.606121063232421875e+00 3.214289903640747070e+00 1.017765808105468750e+01 1.545210957527160645e+00 8.300279617309570312e+00 1.434555816650390625e+01 5.093131065368652344e+00 1.792400002479553223e+00 1.598985767364501953e+01 3.480662107467651367e+00 1.806400108337402344e+01 1.652665710449218750e+01 1.730232048034667969e+01 4.531459808349609375e+00 4.160099923610687256e-01 7.596180915832519531e+00 9.765560150146484375e+00 3.229207992553710938e+00 5.513801097869873047e+00 1.699789047241210938e+01 4.403428077697753906e+00 3.264520883560180664e+00 1.328948974609375000e+01 1.831900030374526978e-01 1.952620983123779297e+00 1.164799022674560547e+01 5.798488140106201172e+00 7.248590946197509766e+00 1.084018993377685547e+01 8.887898445129394531e+00 1.139950990676879883e+00 1.126949024200439453e+01 1.235905838012695312e+01 7.175321102142333984e+00 1.532608985900878906e+01 1.373095798492431641e+01 3.818970918655395508e+00 1.655538940429687500e+01 9.048128128051757812e+00 6.445860862731933594e+00 9.402339935302734375e+00 1.537095832824707031e+01 1.028112125396728516e+01 5.235149860382080078e+00 1.753295707702636719e+01 1.622872161865234375e+01 5.975210189819335938e+00 2.010257959365844727e+00 1.059052085876464844e+01 2.865159988403320312e+00 6.862358093261718750e+00 1.739352035522460938e+01 8.137980103492736816e-01 6.313047885894775391e+00 1.691842079162597656e+01 6.944690227508544922e+00 8.041017532348632812e+00 2.376749962568283081e-01 2.805010080337524414e+00 1.252125835418701172e+01 1.245092105865478516e+01 8.806419968605041504e-01 1.114905834197998047e+01 1.232802104949951172e+01 7.587500095367431641e+00 1.181175804138183594e+01 1.132072067260742188e+01 2.161030054092407227e+00 1.271805763244628906e+01 1.529322147369384766e+01 1.376119041442871094e+01 3.733668088912963867e+00 1.013702106475830078e+01 1.364739036560058594e+01 4.549440145492553711e-01 1.284122085571289062e+01 7.038009762763977051e-01 2.010727882385253906e+00 1.052732086181640625e+01 1.512609004974365234e+01 6.117547988891601562e+00 1.210212135314941406e+01 8.811619758605957031e+00 5.557978153228759766e+00 1.023482131958007812e+01 1.362759017944335938e+01 1.227815818786621094e+01 1.556952095031738281e+01 1.452738952636718750e+01 1.003395843505859375e+01 1.557342052459716797e+01 1.678029060363769531e+01 1.591835784912109375e+01 1.391602134704589844e+01 1.039538955688476562e+01 1.676945877075195312e+01 2.453790903091430664e+00 5.822710037231445312e+00 3.479727983474731445e+00 5.715200901031494141e+00 5.843860149383544922e+00 1.510177969932556152e+00 7.478971004486083984e+00 2.999089956283569336e+00 2.364137887954711914e+00 3.985760927200317383e+00 2.923239946365356445e+00 2.307938098907470703e+00 1.645562171936035156e+01 5.163469791412353516e+00 3.860137939453125000e+00 5.752030849456787109e+00 4.742340087890625000e+00 4.652217864990234375e+00 8.136940956115722656e+00 8.258040428161621094e+00 4.394587993621826172e+00 2.263740003108978271e-01 2.725039958953857422e+00 1.194468021392822266e+00 9.326559901237487793e-01 1.128780007362365723e+00 4.521478176116943359e+00 4.721711158752441406e+00 1.655578994750976562e+01 1.693735885620117188e+01 3.046991109848022461e+00 3.909329891204833984e+00 6.192428112030029297e+00 4.213991165161132812e+00 7.020080089569091797e+00 6.095138072967529297e+00 2.937911033630371094e+00 1.721088981628417969e+01 7.283977985382080078e+00 1.129490971565246582e+00 6.475110054016113281e+00 8.978777885437011719e+00 5.773200988769531250e+00 3.213880062103271484e+00 8.160378456115722656e+00 6.556231021881103516e+00 1.778610050678253174e-01 5.758518218994140625e+00 5.585209727287292480e-01 1.863590002059936523e+00 7.941867828369140625e+00 2.395380973815917969e+00 9.905420303344726562e+00 1.321495819091796875e+01 4.651831150054931641e+00 6.202690124511718750e+00 1.030815792083740234e+01 6.333550930023193359e+00 4.891089916229248047e+00 1.317255783081054688e+01 7.027370929718017578e+00 1.804620027542114258e+00 1.086585807800292969e+01 7.815170764923095703e+00 5.898409843444824219e+00 1.018885803222656250e+01 2.700170993804931641e+00 1.715218925476074219e+01 1.078875827789306641e+01 3.744261026382446289e+00 2.728199958801269531e+00 1.071875762939453125e+01 1.078182125091552734e+01 1.754998970031738281e+01 1.030035781860351562e+01 4.493580818176269531e+00 3.559629917144775391e+00 1.664485740661621094e+01 6.906150817871093750e+00 1.302240014076232910e+00 1.700865745544433594e+01 5.323091030120849609e+00 1.641160011291503906e+00 1.392345809936523438e+01 6.165461063385009766e+00 7.512549877166748047e+00 1.612915802001953125e+01 3.249041080474853516e+00 4.824900031089782715e-01 3.831279873847961426e-01 9.952039718627929688e-01 5.272349834442138672e+00 1.740985870361328125e+01 -2.324810028076171875e-01 7.857389926910400391e+00 1.345535755157470703e+01 2.105781078338623047e+00 1.478328990936279297e+01 1.104138970375061035e+00 2.396651029586791992e+00 1.156558990478515625e+01 8.935989737510681152e-01 7.559141159057617188e+00 1.164838981628417969e+01 4.370987892150878906e+00 6.515301227569580078e+00 1.695189094543457031e+01 2.458317995071411133e+00 5.760221004486083984e+00 9.478599548339843750e+00 2.455847978591918945e+00 2.991101026535034180e+00 1.310848999023437500e+01 4.686768054962158203e+00 3.543751001358032227e+00 1.724839019775390625e+01 3.746268033981323242e+00 5.171051025390625000e+00 1.352499008178710938e+01 8.298220038414001465e-01 1.773069947957992554e-01 1.052219009399414062e+01 1.071595764160156250e+01 6.672591209411621094e+00 1.265038967132568359e+01 8.374148368835449219e+00 5.721411228179931641e+00 1.506109046936035156e+01 5.157767772674560547e+00 7.009100914001464844e+00 9.549550056457519531e+00 7.370768070220947266e+00 3.296581029891967773e+00 1.068299007415771484e+01 7.147747993469238281e+00 3.579519987106323242e-01 1.244688987731933594e+01 6.731088161468505859e+00 1.701772117614746094e+01 1.690509033203125000e+01 6.669727802276611328e+00 1.356940984725952148e+00 1.041938972473144531e+01 4.217018127441406250e+00 2.329951047897338867e+00 1.277048969268798828e+01 1.160595798492431641e+01 8.449750900268554688e+00 1.521358966827392578e+01 1.202585792541503906e+01 5.982591152191162109e+00 1.001340007781982422e+01 1.030285835266113281e+01 1.581562137603759766e+01 7.212849855422973633e-01 1.519565773010253906e+01 3.786911010742187500e+00 1.453849029541015625e+01 8.729468345642089844e+00 5.930571079254150391e+00 1.696138954162597656e+01 9.296948432922363281e+00 5.595130920410156250e+00 1.658098983764648438e+01 1.340365791320800781e+01 2.499061107635498047e+00 1.766909027099609375e+01 1.488095760345458984e+01 8.124060630798339844e+00 1.349419021606445312e+01 7.143210172653198242e-01 5.156980991363525391e+00 1.059829044342041016e+01 1.633335876464843750e+01 2.728370904922485352e+00 1.343439006805419922e+01 1.601975822448730469e+01 2.959770917892456055e+00 6.922120094299316406e+00 1.478595829010009766e+01 8.444681167602539062e+00 1.623208999633789062e+01 1.511135768890380859e+01 1.637482070922851562e+01 1.671709060668945312e+01 1.785605812072753906e+01 6.267190933227539062e+00 9.376790046691894531e+00 1.326385784149169922e+01 1.716712188720703125e+01 7.797480106353759766e+00 2.011408090591430664e+00 9.900820732116699219e+00 6.070859909057617188e+00 1.379647970199584961e+00 1.429272079467773438e+01 6.231870174407958984e+00 1.528478026390075684e+00 1.087482070922851562e+01 9.040150046348571777e-01 2.665368080139160156e+00 1.123112106323242188e+01 3.432970046997070312e+00 1.784885787963867188e+01 1.016852092742919922e+01 3.846240043640136719e+00 5.080728054046630859e+00 1.553522109985351562e+01 1.423869967460632324e+00 5.801477909088134766e+00 1.586212062835693359e+01 5.342669963836669922e+00 7.320697784423828125e+00 1.234902095794677734e+01 1.802829980850219727e+00 6.563367843627929688e+00 9.067070960998535156e+00 1.521520018577575684e+00 7.172537803649902344e+00 1.055082130432128906e+01 8.175709724426269531e+00 6.691607952117919922e+00 1.078022098541259766e+01 4.551320075988769531e+00 8.081757545471191406e+00 1.349822139739990234e+01 1.786219024658203125e+01 1.229955768585205078e+01 1.080552101135253906e+01 7.628210067749023438e+00 1.303085803985595703e+01 7.157459855079650879e-01 4.299109935760498047e+00 1.117975807189941406e+01 1.337682056427001953e+01 2.161250114440917969e+00 9.869917869567871094e+00 1.181872081756591797e+01 7.024290084838867188e+00 9.948258399963378906e+00 1.598392105102539062e+01 3.745970010757446289e+00 1.338205814361572266e+01 1.593342113494873047e+01 7.732870101928710938e+00 9.733497619628906250e+00 1.369862079620361328e+01 6.361229896545410156e+00 1.263245773315429688e+01 8.653281211853027344e+00 4.895140171051025391e+00 1.621645736694335938e+01 9.924171447753906250e+00 1.049044013023376465e+00 1.372125816345214844e+01 1.153682136535644531e+01 6.505239963531494141e+00 1.656655883789062500e+01 1.554482078552246094e+01 4.340889930725097656e+00 1.667835807800292969e+01 1.280222129821777344e+01 2.946069955825805664e+00 1.386275768280029297e+01 1.599581003189086914e+00 2.720860004425048828e+00 1.411225795745849609e+01 1.061442089080810547e+01 3.908790111541748047e+00 1.181625843048095703e+01 1.331552124023437500e+01 5.390329957008361816e-01 3.992100059986114502e-02 1.229140996932983398e+00 9.083889961242675781e+00 1.631645774841308594e+01 1.435972118377685547e+01 1.451778984069824219e+01 5.428788185119628906e+00 1.448122119903564453e+01 1.447148990631103516e+01 1.993548035621643066e+00 1.109202098846435547e+01 1.246249008178710938e+01 1.908687949180603027e+00 1.327982139587402344e+01 1.717979049682617188e+01 3.189718008041381836e+00 9.052700996398925781e+00 9.740679740905761719e+00 1.741387963294982910e+00 1.282382106781005859e+01 1.034939002990722656e+01 2.466119974851608276e-01 1.060142135620117188e+01 1.572049045562744141e+01 4.720489978790283203e-01 1.373402118682861328e+01 2.533610105514526367e+00 2.608237981796264648e+00 1.516882133483886719e+01 1.172918987274169922e+01 3.704518079757690430e+00 -2.877190113067626953e-01 1.458788967132568359e+01 3.437958002090454102e+00 1.176302146911621094e+01 1.659808921813964844e+01 6.710758209228515625e+00 1.264122104644775391e+01 7.244140148162841797e+00 4.372427940368652344e+00 1.122532081604003906e+01 1.327569007873535156e+01 6.555458068847656250e+00 -3.099609911441802979e-01 8.269689559936523438e+00 6.439717769622802734e+00 1.163632106781005859e+01 1.036038970947265625e+01 4.137598037719726562e+00 1.532532119750976562e+01 1.301618957519531250e+01 8.765587806701660156e+00 1.369902133941650391e+01 9.427909851074218750e+00 6.770068168640136719e+00 1.008306121826171875e+01 1.506678962707519531e+01 4.093788146972656250e+00 8.832660675048828125e+00 1.536089038848876953e+01 7.341958045959472656e+00 1.004055118560791016e+01 1.189498996734619141e+01 1.328475761413574219e+01 1.501472091674804688e+01 1.373048973083496094e+01 1.194385814666748047e+01 1.342832088470458984e+01 9.473190307617187500e+00 1.156375789642333984e+01 9.111500740051269531e+00 1.073478984832763672e+01 9.805698394775390625e+00 1.146542072296142578e+01 1.489618968963623047e+01 1.341375827789306641e+01 1.112672138214111328e+01 1.339688968658447266e+01 1.040235805511474609e+01 9.060200303792953491e-02 1.186108970642089844e+01 1.393865776062011719e+01 1.433752059936523438e+01 1.605538940429687500e+01 9.328778266906738281e+00 -1.404920071363449097e-01 9.683520197868347168e-01 1.174235820770263672e+01 -7.637599855661392212e-02 1.542119026184082031e+01 1.016495800018310547e+01 1.037862110137939453e+01 1.310499000549316406e+01 1.647395706176757812e+01 -6.263719797134399414e-01 1.563088989257812500e+01 1.486525821685791016e+01 1.517772102355957031e+01 1.179708957672119141e+01 1.760115814208984375e+01 1.325082111358642578e+01 1.101169013977050781e+01 1.497805786132812500e+01 1.492622089385986328e+01 8.454440116882324219e+00 1.652795791625976562e+01 8.418210983276367188e+00 9.856920242309570312e+00 1.586865806579589844e+01 1.377962112426757812e+01 1.595359039306640625e+01 1.610855865478515625e+01 6.265961170196533203e+00 1.357229042053222656e+01 1.437085819244384766e+01