-6.086750390625000000e+04
-6.086197265625000000e+04
-6.085019140625000000e+04
-6.085006640625000000e+04
-6.083181250000000000e+04
-6.083767578125000000e+04
-6.083544140625000000e+04
-6.083324609375000000e+04
-6.083192187500000000e+04
-6.083399609375000000e+04
-6.086431250000000000e+04
-6.084071484375000000e+04
-6.083977734375000000e+04
-6.083521093750000000e+04
-6.083330859375000000e+04
-6.084879296875000000e+04
-6.085257812500000000e+04
-6.084876562500000000e+04
-6.084801171875000000e+04
-6.084675000000000000e+04
-6.084191406250000000e+04
-6.083611718750000000e+04
-6.083552734375000000e+04
-6.083732421875000000e+04
-6.083760937500000000e+04
-6.083804687500000000e+04
-6.083458984375000000e+04
-6.083719921875000000e+04
-6.084223437500000000e+04
-6.083769531250000000e+04
-6.083615234375000000e+04
-6.083442187500000000e+04
-6.083596875000000000e+04
-6.087493359375000000e+04
-6.087144921875000000e+04
-6.084898828125000000e+04
-6.085048437500000000e+04
-6.083996484375000000e+04
-6.083863281250000000e+04
-6.083706250000000000e+04
-6.083228906250000000e+04
-6.082880468750000000e+04
-6.084090625000000000e+04
-6.083873437500000000e+04
-6.083769921875000000e+04
-6.087219531250000000e+04
-6.084810937500000000e+04
-6.085034375000000000e+04
-6.083858203125000000e+04
-6.083599609375000000e+04
-6.084100000000000000e+04
-6.083376171875000000e+04
-6.083685156250000000e+04
-6.083646875000000000e+04
-6.083434765625000000e+04
-6.083736718750000000e+04
-6.083882812500000000e+04
-6.087057031250000000e+04
-6.084831640625000000e+04
-6.084878906250000000e+04
-6.083818359375000000e+04
-6.083327343750000000e+04
-6.083198828125000000e+04
-6.082780859375000000e+04
-6.082931640625000000e+04
-6.082902734375000000e+04
-6.083177734375000000e+04
-6.083306640625000000e+04
-6.083423828125000000e+04
-6.083894531250000000e+04
-6.083577343750000000e+04
-6.083691406250000000e+04
-6.087370312500000000e+04
-6.085295703125000000e+04
-6.085444531250000000e+04
-6.085688671875000000e+04
-6.085332812500000000e+04
-6.084668359375000000e+04
-6.084115234375000000e+04
-6.083558593750000000e+04
-6.083437500000000000e+04
-6.083912500000000000e+04
-6.083850000000000000e+04
-6.083928906250000000e+04
-6.083674609375000000e+04
-6.083558203125000000e+04
-6.082926953125000000e+04
-6.083505078125000000e+04
-6.083342968750000000e+04
-6.083483203125000000e+04
-6.086805078125000000e+04
-6.085575781250000000e+04
-6.086880859375000000e+04
-6.084200000000000000e+04
-6.083642578125000000e+04
-6.086632421875000000e+04
-6.083790234375000000e+04
-6.083482031250000000e+04
-6.083390234375000000e+04
-6.083600781250000000e+04
-6.083869921875000000e+04
-6.083625390625000000e+04
-6.087232812500000000e+04
-6.087097265625000000e+04
-6.087416796875000000e+04
-6.087083984375000000e+04
-6.086785156250000000e+04
-6.084944140625000000e+04
-6.084905859375000000e+04
-6.083781250000000000e+04
-6.083858203125000000e+04
-6.082660156250000000e+04
-6.083423046875000000e+04
-6.083245312500000000e+04
-6.083198046875000000e+04
-6.083616796875000000e+04
-6.083680078125000000e+04
-6.087217187500000000e+04
-6.084653515625000000e+04
-6.084903125000000000e+04
-6.083763671875000000e+04
-6.083796484375000000e+04
-6.083797265625000000e+04
-6.083008984375000000e+04
-6.083285937500000000e+04
-6.083237109375000000e+04
-6.083387500000000000e+04
-6.083403515625000000e+04
-6.083536328125000000e+04
-6.083300390625000000e+04
-6.083787109375000000e+04
-6.083533203125000000e+04
-6.087167968750000000e+04
-6.084924218750000000e+04
-6.085098437500000000e+04
-6.085245312500000000e+04
-6.085042187500000000e+04
-6.085126953125000000e+04
-6.085284765625000000e+04
-6.083230468750000000e+04
-6.082976953125000000e+04
-6.083357812500000000e+04
-6.083495703125000000e+04
-6.083230859375000000e+04
-6.083726562500000000e+04
-6.083441406250000000e+04
-6.083564843750000000e+04
-6.087114453125000000e+04
-6.085053906250000000e+04
-6.085354296875000000e+04
-6.085442187500000000e+04
-6.083600390625000000e+04
-6.083083593750000000e+04
-6.083717968750000000e+04
-6.085989062500000000e+04
-6.084281250000000000e+04
-6.084032812500000000e+04
-6.083465234375000000e+04
-6.083238671875000000e+04
