5.668948888778686523e-01 2.116547822952270508e-01 -9.343698620796203613e-02 4.114948213100433350e-02 -1.111858189105987549e-01 2.265064865350723267e-01 1.139322742819786072e-01 -8.786283433437347412e-02 -4.195264279842376709e-01 -9.931092709302902222e-02 4.216275215148925781e-01 -2.598886787891387939e-01 4.790788516402244568e-02 -6.171856522560119629e-01 -2.274783849716186523e-01 1.725884079933166504e-01 2.412183582782745361e-01 4.748869240283966064e-01 -1.671217232942581177e-01 3.149982094764709473e-01 2.198360413312911987e-01 -4.279899895191192627e-01 4.996193945407867432e-01 1.976098679006099701e-02 4.414482042193412781e-02 1.674230545759201050e-01 2.778231538832187653e-02 -1.223068758845329285e-01 3.893961906433105469e-01 1.135229468345642090e-01 -3.474697172641754150e-01 -3.488545119762420654e-01 1.001650467514991760e-02 8.653151988983154297e-02 1.810709834098815918e-01 -1.731653511524200439e-01 2.187978178262710571e-01 2.860043756663799286e-02 1.005301438271999359e-02 2.362340241670608521e-01 -1.995947659015655518e-01 2.949935197830200195e-01 1.274099946022033691e-01 1.292102783918380737e-01 -9.630376100540161133e-02 2.312820553779602051e-01 1.373411417007446289e-01 6.607838720083236694e-02 -2.161063998937606812e-01 -1.427856981754302979e-01 3.237502276897430420e-01 -9.484388679265975952e-02 9.984263032674789429e-02 -3.128698766231536865e-01 -1.822130680084228516e-01 -1.635849177837371826e-01 1.430176347494125366e-01 3.546687960624694824e-01 -3.454189896583557129e-01 -2.291506230831146240e-01 1.877224445343017578e-01 1.011849999427795410e+00 -2.034904956817626953e-01 -1.533714681863784790e-01 -3.373107612133026123e-01 -1.604281067848205566e-01 9.011974930763244629e-02 -9.183672815561294556e-02 2.232113927602767944e-01 -5.614405274391174316e-01 -6.817008256912231445e-01 3.052604198455810547e-01 1.445294469594955444e-01 -1.028816774487495422e-01 1.843044012784957886e-01 3.648200333118438721e-01 -2.682740800082683563e-02 -4.783126413822174072e-01 3.085509240627288818e-01 -1.077940240502357483e-01 -8.578228764235973358e-03 -2.372305691242218018e-01 2.970941066741943359e-01 2.567848563194274902e-01 6.028738617897033691e-01 -7.794227600097656250e-01 -2.900657057762145996e-01 1.571509987115859985e-01 -4.680950939655303955e-02 7.552410662174224854e-02 -3.603144288063049316e-01 2.648827731609344482e-01 -1.387974172830581665e-01 1.437509059906005859e-01 1.900369375944137573e-01 -8.563110977411270142e-02 -1.455244637327268720e-04 7.139491289854049683e-02 4.301455803215503693e-03 3.951168954372406006e-01 2.751440741121768951e-02 -5.291166305541992188e-01 9.800172597169876099e-02 3.202967643737792969e-01 3.436742350459098816e-02 4.581521153450012207e-01 -2.622268348932266235e-02 -4.209513589739799500e-02 -2.403878793120384216e-02 8.466231822967529297e-02 -1.358380764722824097e-01 1.168833971023559570e-01 -2.558397054672241211e-01 -2.348476797342300415e-01 -2.494088560342788696e-01 -3.381669148802757263e-02 2.497317790985107422e-01 3.825802123174071312e-03 4.491074979305267334e-01 -3.270453810691833496e-01 5.635827779769897461e-01 1.688032150268554688e-01 3.640852272510528564e-01 -3.222055360674858093e-02 -5.999361351132392883e-02 -4.874369800090789795e-01 -2.052522301673889160e-01 1.129871383309364319e-01 -6.114289909601211548e-02 -3.535730019211769104e-02 -1.917122602462768555e-01 -1.539422422647476196e-01 -3.594495356082916260e-01 -9.201876074075698853e-02 -1.110495626926422119e-01 -2.671962678432464600e-01 -5.324560403823852539e-01 -6.183864176273345947e-02 3.334828913211822510e-01 -1.617630273103713989e-01 -3.045611083507537842e-01 -1.307046115398406982e-01 1.766522973775863647e-01 1.143400520086288452e-01 -1.310594379901885986e-02 -2.671016454696655273e-01 2.405365109443664551e-01 -8.103552460670471191e-02 -1.797252707183361053e-02 -9.840075671672821045e-02 -5.496931672096252441e-01 -2.264206260442733765e-01 -3.547454252839088440e-02 2.835191786289215088e-01 -1.371858566999435425e-01 -9.493388980627059937e-02 -2.692978978157043457e-01 2.114177197217941284e-01 7.054228782653808594e-01 1.173410490155220032e-01 1.062066331505775452e-01 6.394128501415252686e-02 1.219813823699951172e-01 -1.395605206489562988e-01 -2.566593885421752930e-01 -4.901083707809448242e-01 -5.822557210922241211e-01 -4.581263959407806396e-01 1.342352479696273804e-01 6.389772891998291016e-01 -4.553938508033752441e-01 -1.466536819934844971e-01 4.714673459529876709e-01 3.461116179823875427e-02 3.261079490184783936e-01 -1.133013293147087097e-01 -5.326539278030395508e-01 7.825539112091064453e-01 7.054696977138519287e-02 7.963735610246658325e-03 7.445607334375381470e-02 -1.713733077049255371e-01 -4.391290247440338135e-02 -1.105576038360595703e+00 6.236854195594787598e-01 3.903783261775970459e-01 5.851522833108901978e-02 9.077949821949005127e-02 2.562577724456787109e-01 1.411983221769332886e-01 2.111446708440780640e-01 -2.907794713973999023e-01 5.301296114921569824e-01 -7.900363206863403320e-01 6.501544117927551270e-01 -1.042068284004926682e-02 -4.334983229637145996e-02 2.927185893058776855e-01 -5.333491563796997070e-01 -3.301363587379455566e-01 -1.863381452858448029e-02 2.091289311647415161e-01 -4.976221323013305664e-01 -7.354076206684112549e-02 -3.110931999981403351e-02 -4.342444539070129395e-01 1.948433555662631989e-02 1.447891145944595337e-01 -2.837850153446197510e-01 2.071697413921356201e-01 -2.578220069408416748e-01 4.984798729419708252e-01 -2.124723941087722778e-01 6.128312349319458008e-01 2.055664062500000000e-01 1.432505697011947632e-01 1.260869111865758896e-02 5.479201674461364746e-01 -2.395512461662292480e-01 -8.892829716205596924e-02 1.291372627019882202e-01 -1.955426931381225586e-01 3.854742348194122314e-01 -2.447572201490402222e-01 -4.478965103626251221e-01 -1.545083969831466675e-01 2.641263902187347412e-01 -1.907964423298835754e-02 -3.372824937105178833e-02 -4.787301719188690186e-01 -3.339502960443496704e-02 -4.530886113643646240e-01 -7.711613178253173828e-02 3.683383464813232422e-01 5.093252658843994141e-02 -1.127027794718742371e-01 -3.400289416313171387e-01 2.133321613073348999e-01 -1.000606641173362732e-01 -9.672490996308624744e-04 2.876740694046020508e-01 -5.999495387077331543e-01 -1.275904923677444458e-01 -7.322091609239578247e-02 2.899937033653259277e-01 1.064801961183547974e-01 -7.332272827625274658e-03 3.029726445674896240e-01 -3.088872134685516357e-02 3.481731712818145752e-01 -2.416857630014419556e-01 -2.870467305183410645e-01 -3.187607824802398682e-01 2.826959192752838135e-01 -2.186584621667861938e-01 -3.618159592151641846e-01 -2.324210703372955322e-01 -4.114202260971069336e-01 2.499061077833175659e-02 -3.788284361362457275e-01 5.720190703868865967e-02 -3.283386528491973877e-01 -2.259830236434936523e-01 2.304798811674118042e-01 5.046602487564086914e-01 -9.594330191612243652e-02 3.136478662490844727e-01 1.270202249288558960e-01 7.339965701103210449e-01 1.193609014153480530e-01 -1.472301334142684937e-01 4.038874506950378418e-01 2.321480214595794678e-01 1.608322978019714355e+00 7.144829034805297852e-01 -1.233668446540832520e+00 -4.177631735801696777e-01 -1.400911957025527954e-01 -3.900137543678283691e-01 7.688817977905273438e-01 1.826019287109375000e+00 -1.802599072456359863e+00 1.946145296096801758e-01 -1.627227783203125000e+00 1.200218796730041504e+00 -1.777175545692443848e+00 -9.450327157974243164e-01 1.671369552612304688e+00 1.460080862045288086e+00 -4.445674419403076172e-01 -4.984372258186340332e-01 -8.257098793983459473e-01 1.284163832664489746e+00 1.049174785614013672e+00 -4.681532084941864014e-01 6.094569563865661621e-01 -6.537714600563049316e-01 7.799776196479797363e-01 3.725158572196960449e-01 2.374136298894882202e-01 -7.283113896846771240e-02 2.447567135095596313e-01 -1.629872322082519531e+00 -9.033329486846923828e-01 2.387845367193222046e-01 1.281188011169433594e+00 1.701965570449829102e+00 -1.752793043851852417e-01 -5.908770561218261719e-01 -1.256878823041915894e-01 -1.460597634315490723e+00 1.093022227287292480e+00 -1.129777789115905762e+00 1.156188249588012695e+00 -1.614317059516906738e+00 4.905716702342033386e-02 4.526201486587524414e-01 5.775212645530700684e-01 -8.542090058326721191e-01 -1.490422338247299194e-01 5.668841004371643066e-01 8.149533867835998535e-01 -7.924279570579528809e-01 2.580169141292572021e-01 -1.611156202852725983e-02 -6.131917834281921387e-01 -7.453988492488861084e-02 -3.779881894588470459e-01 -1.182136833667755127e-01 4.474316239356994629e-01 1.487645626068115234e+00 1.546724438667297363e-01 -7.133536934852600098e-01 1.012739658355712891e+00 -4.545788168907165527e-01 5.896568764001131058e-03 -8.537441492080688477e-01 5.654894709587097168e-01 2.103049516677856445e+00 -2.819559574127197266e-01 2.499695301055908203e+00 1.075472012162208557e-01 1.110053360462188721e-01 -1.011727094650268555e+00 -4.541159868240356445e-01 9.859934449195861816e-01 7.237913459539413452e-02 -3.710827231407165527e-01 3.422128558158874512e-01 1.840674638748168945e+00 -2.269039750099182129e-01 9.640146046876907349e-02 7.622601389884948730e-01 1.058657020330429077e-01 8.911135792732238770e-01 1.474836468696594238e-01 7.310547232627868652e-01 1.054837822914123535e+00 9.171649813652038574e-01 1.294218420982360840e+00 -2.629488408565521240e-01 6.540233492851257324e-01 1.209987029433250427e-01 4.700923264026641846e-01 1.009135365486145020e+00 -3.936883807182312012e-01 7.528839111328125000e-01 8.600664734840393066e-01 7.811371982097625732e-02 -1.186641305685043335e-01 2.051331758499145508e+00 2.205055356025695801e-01 1.016110897064208984e+00 1.446766138076782227e+00 4.689301550388336182e-01 9.274139404296875000e-01 -1.356308609247207642e-01 6.152428984642028809e-01 6.631442159414291382e-02 1.979631334543228149e-01 7.867134213447570801e-01 -3.781404197216033936e-01 -1.153862833976745605e+00 5.416122078895568848e-01 -1.498067259788513184e+00 2.859416604042053223e-01 4.098817110061645508e-01 1.188132613897323608e-01 -2.326853722333908081e-01 2.987334132194519043e-01 2.085093110799789429e-01 -4.886464178562164307e-01 7.952011376619338989e-02 1.667314320802688599e-01 2.560870535671710968e-02 -8.138673007488250732e-02 -1.584504097700119019e-01 -6.252974867820739746e-01 6.711392402648925781e-01 -2.732234299182891846e-01 -1.877023726701736450e-01 3.558499813079833984e-01 2.093078643083572388e-01 6.781902164220809937e-02 -4.142828881740570068e-01 9.458354711532592773e-01 -6.983811259269714355e-01 8.151127696037292480e-01 -1.133000850677490234e+00 -7.909958958625793457e-01 1.643886268138885498e-01 4.295542836189270020e-02 1.081831932067871094e+00 6.179703474044799805e-01 5.947600007057189941e-01 3.115524351596832275e-01 5.584586262702941895e-01 7.257674932479858398e-01 -1.187381893396377563e-01 -1.079415082931518555e+00 3.207153379917144775e-01 3.386045694351196289e-01 -4.773094356060028076e-01 -2.208886295557022095e-02 3.245827853679656982e-01 -5.418132543563842773e-01 -1.804019808769226074e-01 -2.783224582672119141e-01 -1.525399684906005859e-01 2.819476127624511719e+00 -9.311148524284362793e-01 -1.848638653755187988e-01 -1.173261761665344238e+00 5.461640655994415283e-02 7.410465478897094727e-01 -4.633992314338684082e-01 1.446785628795623779e-01 -1.467272192239761353e-01 -1.506892889738082886e-01 4.808153510093688965e-01 2.464114576578140259e-01 -5.854711309075355530e-02 -6.307333111763000488e-01 4.065773189067840576e-01 1.088114619255065918e+00 -2.856557369232177734e-01 -1.448438882827758789e+00 -1.689682900905609131e-01 1.380682550370693207e-02 1.439797431230545044e-01 5.347247123718261719e-01 4.383248090744018555e-01 1.057204842567443848e+00 -7.367522716522216797e-01 5.421732068061828613e-01 1.407283097505569458e-01 -3.847116529941558838e-01 4.209143221378326416e-01 -1.070139482617378235e-01 3.444347679615020752e-01 2.442229539155960083e-01 1.017640709877014160e+00 1.449768096208572388e-01 -2.203898429870605469e-01 -2.713038623332977295e-01 4.796830713748931885e-01 -3.769690394401550293e-01 -7.681196928024291992e-01 1.468753069639205933e-01 1.450297683477401733e-01 5.002148747444152832e-01 7.809037566184997559e-01 1.221582666039466858e-01 3.076325170695781708e-02 3.060075640678405762e-01 1.439386010169982910e-01 -8.559927940368652344e-01 4.085195064544677734e-01 -3.301512897014617920e-01 -3.432412743568420410e-01 1.476923972368240356e-01 -4.580410718917846680e-01 -4.344846010208129883e-01 -2.098123282194137573e-01 -1.635612547397613525e-01 1.052876114845275879e+00 -1.001306414604187012e+00 5.363090634346008301e-01 -5.191880464553833008e-01 -8.781912177801132202e-02 -3.128724396228790283e-01 3.885667622089385986e-01 5.252311825752258301e-01 -2.113123089075088501e-01 3.231902718544006348e-01 3.949708342552185059e-01 -2.085226625204086304e-01 -5.031242966651916504e-01 -1.456859260797500610e-01 1.065413840115070343e-02 3.367440998554229736e-01 -3.123119287192821503e-02 1.435915470123291016e+00 -2.844555675983428955e-01 -2.380826473236083984e-01 -1.865921765565872192e-01 -2.080680727958679199e-01 5.220085382461547852e-01 -6.763210296630859375e-01 -6.918654441833496094e-01 -8.379102945327758789e-01 1.712863892316818237e-01 -3.328391015529632568e-01 -5.961915850639343262e-01 -1.931423097848892212e-01 7.866825461387634277e-01 -3.458679318428039551e-01 4.869284331798553467e-01 5.984037742018699646e-02 -5.820515379309654236e-02 -2.010397166013717651e-01 5.592581629753112793e-01 4.661400020122528076e-01 -3.324549794197082520e-01 5.365943908691406250e-01 -6.179775595664978027e-01 -1.180308818817138672e+00 -9.722046852111816406e-01 -8.196868300437927246e-01 4.147873818874359131e-01 6.716719865798950195e-01 4.582420885562896729e-01 -1.265400886535644531e+00 9.587536454200744629e-01 2.172736674547195435e-01 -7.074807286262512207e-01 2.554766535758972168e-01 -8.935139775276184082e-01 -3.577371537685394287e-01 4.350059926509857178e-01 5.683079361915588379e-01 -4.644461870193481445e-01 -5.904179215431213379e-01 -8.059411644935607910e-01 -1.067069053649902344e+00 -7.744585275650024414e-01 -4.870482683181762695e-01 -3.503087460994720459e-01 -2.347366064786911011e-01 -5.774343609809875488e-01 7.856680154800415039e-01 -3.133259713649749756e-01 4.483541846275329590e-02 8.383360505104064941e-01 5.484832078218460083e-02 -1.142459586262702942e-01 -1.701288819313049316e-01 -1.020606756210327148e+00 -1.638985276222229004e+00 -1.078408285975456238e-01 -1.756886392831802368e-02 -2.467282302677631378e-02 4.915039539337158203e-01 -2.712673544883728027e-01 -4.678950607776641846e-01 1.238356456160545349e-01 8.280382752418518066e-01 1.603355556726455688e-01 3.851194083690643311e-01 -9.930835664272308350e-02 7.373513281345367432e-02 9.812925010919570923e-02 -1.132653355598449707e-01 7.625944167375564575e-02 -9.711356759071350098e-01 -2.279216349124908447e-01 4.992517083883285522e-02 9.706480801105499268e-02 -1.539597362279891968e-01 -4.531143009662628174e-01 3.360817730426788330e-01 -2.545392327010631561e-02 -8.088089823722839355e-01 -3.889770805835723877e-02 -7.397306561470031738e-01 -6.147379875183105469e-01 3.163166940212249756e-01 -1.918032914400100708e-01 2.671350836753845215e-01 -3.230128809809684753e-02 -4.401225149631500244e-01 -2.305719107389450073e-01 6.088100075721740723e-01 3.637386262416839600e-01 -1.748545765876770020e-01 1.287747472524642944e-01 1.427162885665893555e-01 -5.802034139633178711e-01 3.642996549606323242e-01 4.753234982490539551e-01 -5.570449829101562500e-01 -6.178423762321472168e-01 -2.513207197189331055e-01 -7.883105874061584473e-01 4.760896563529968262e-01 -1.555831283330917358e-01 -1.333445310592651367e+00 7.715197801589965820e-01 7.892937660217285156e-01 2.725883945822715759e-02 -6.623213291168212891e-01 2.852690592408180237e-02 8.032846450805664062e-02 -6.272114515304565430e-01 6.808533668518066406e-01 -2.993278764188289642e-02 3.429548740386962891e-01 -9.369295835494995117e-01 1.103989124298095703e+00 -3.837947845458984375e-01 -1.194658055901527405e-01 2.818032167851924896e-02 5.645423382520675659e-02 -1.027567267417907715e+00 7.442069649696350098e-01 -2.469303160905838013e-01 4.417767524719238281e-01 -4.071034118533134460e-02 8.667909353971481323e-02 1.014763042330741882e-01 -1.340593993663787842e-01 -2.243226021528244019e-01 -2.463014237582683563e-02 -4.532958194613456726e-02 5.344840288162231445e-01 -3.570630252361297607e-01 1.076009869575500488e+00 -7.350398898124694824e-01 6.351262927055358887e-01 2.743408381938934326e-01 -9.504202604293823242e-01 6.211780905723571777e-01 -2.453598827123641968e-01 -2.012063264846801758e-01 -1.609341055154800415e-01 -7.583932280540466309e-01 -1.025709867477416992e+00 9.991770237684249878e-02 -2.453187406063079834e-01 -3.160384893417358398e-01 5.511931609362363815e-03 3.852073550224304199e-01 7.382522225379943848e-01 -1.051972031593322754e+00 5.124285817146301270e-01 -4.903865605592727661e-02 -9.017055034637451172e-01 -1.251505166292190552e-01 -5.866435170173645020e-01 -6.001171469688415527e-01 -5.368053168058395386e-02 1.060941696166992188e+00 -7.825379967689514160e-01 -1.926399320363998413e-01 1.199827432632446289e+00 -7.813444137573242188e-01 -8.086068630218505859e-01 8.015969991683959961e-01 -4.387243688106536865e-01 1.191012263298034668e-01 -1.068479657173156738e+00 2.476368546485900879e-01 9.512002766132354736e-02 -1.525800824165344238e-01 4.090532958507537842e-01 2.433755062520503998e-02 -6.677762866020202637e-01 -9.190152399241924286e-03 2.081745266914367676e-01 1.066370233893394470e-01 2.654936909675598145e-01 -3.456632792949676514e-01 -1.317378282546997070e+00 3.139471411705017090e-01 4.228966236114501953e-01 2.599179930984973907e-02 -2.109585106372833252e-01 2.033825069665908813e-01 -3.944941461086273193e-01 9.330791234970092773e-02 -8.827164024114608765e-02 -1.093724846839904785e+00 9.045218825340270996e-01 -8.585222810506820679e-02 -2.863129377365112305e-01 -5.633801594376564026e-02 -7.634891569614410400e-02 -6.742117404937744141e-01 9.674887061119079590e-01 5.834836363792419434e-01 -1.483310222625732422e+00 -1.423861682415008545e-01 -4.070519655942916870e-02 -7.065392564982175827e-04 -2.581701278686523438e-01 -1.742575615644454956e-01 2.584884464740753174e-01 1.420879215002059937e-01 -1.720489859580993652e-01 2.587383687496185303e-01 -5.849907994270324707e-01 -9.499779343605041504e-01 -1.036643162369728088e-01 -8.967751264572143555e-02 -1.259475499391555786e-01 1.988455504179000854e-01 -1.242907419800758362e-01 -5.233450531959533691e-01 7.173188328742980957e-01 -5.713454633951187134e-02 -1.214573830366134644e-01 5.051606893539428711e-01 -1.604759395122528076e-01 -3.853724151849746704e-02 -9.875094145536422729e-02 -2.209230959415435791e-01 -2.604501843452453613e-01 4.136293530464172363e-01 8.934193253517150879e-01 -8.289921283721923828e-01 7.571051120758056641e-01 4.056892693042755127e-01 -2.664819955825805664e-01 -8.536258935928344727e-01 5.293778181076049805e-01 1.405226290225982666e-01 -3.511782884597778320e-01 2.341452538967132568e-01 -6.833375692367553711e-01 -1.149173259735107422e+00 3.997803628444671631e-01 -3.587933480739593506e-01 -2.268150299787521362e-01 -4.135722517967224121e-01 4.949682950973510742e-02 1.636522710323333740e-01 -3.582380414009094238e-01 6.680930256843566895e-01 -5.549212694168090820e-01 -4.461902976036071777e-01 -1.517465221695601940e-03 -2.550401091575622559e-01 -7.396416664123535156e-01 -2.484863698482513428e-01 1.131652593612670898e+00 -3.600259721279144287e-01 -2.253495007753372192e-01 -1.379191223531961441e-02 -1.473067551851272583e-01 -1.122749447822570801e+00 -6.196421384811401367e-01 -4.235003590583801270e-01 5.365589261054992676e-01 -1.409021317958831787e-01 1.864286512136459351e-01