-4.207040405273437500e+01 1.310168504714965820e+00 1.588017702102661133e+00 1.310168504714965820e+00 -4.790710449218750000e+01 1.022625637054443359e+01 1.588017702102661133e+00 1.022625637054443359e+01 -5.680120468139648438e+01
-3.723195266723632812e+01 2.431782960891723633e+00 2.432327121496200562e-01 2.431782960891723633e+00 -5.788425445556640625e+01 -1.212082767486572266e+01 2.432327121496200562e-01 -1.212082767486572266e+01 -4.543822479248046875e+01
-2.463893890380859375e+01 -4.723127782344818115e-01 -1.166818237304687500e+01 -4.723127782344818115e-01 -5.995634841918945312e+01 5.431453227996826172e+00 -1.166818237304687500e+01 5.431453227996826172e+00 -5.850016403198242188e+01
-5.137944412231445312e+01 -1.022297620773315430e+00 -1.840155220031738281e+01 -1.022297620773315430e+00 -6.081713485717773438e+01 5.368370056152343750e+00 -1.840155220031738281e+01 5.368370056152343750e+00 -4.822727584838867188e+01
-4.307485198974609375e+01 1.392946434020996094e+01 -1.743218231201171875e+01 1.392946434020996094e+01 -5.827882766723632812e+01 8.851119995117187500e+00 -1.743218231201171875e+01 8.851119995117187500e+00 -5.873351287841796875e+01
-2.097626113891601562e+01 1.429679036140441895e+00 -3.644932985305786133e+00 1.429679036140441895e+00 -4.732537841796875000e+01 -1.008076000213623047e+01 -3.644932985305786133e+00 -1.008076000213623047e+01 -5.101805496215820312e+01
-4.643869781494140625e+01 -5.359850406646728516e+00 4.436138153076171875e+00 -5.359850406646728516e+00 -4.838548660278320312e+01 -1.270066356658935547e+01 4.436138153076171875e+00 -1.270066356658935547e+01 -4.568023300170898438e+01
-4.497829437255859375e+00 -4.463368415832519531e+00 -7.305891036987304688e+00 -4.463368415832519531e+00 -4.721680831909179688e+01 -7.588040828704833984e+00 -7.305891036987304688e+00 -7.588040828704833984e+00 -4.520380020141601562e+01
-4.956152343750000000e+01 4.920888423919677734e+00 -2.204129695892333984e+00 4.920888423919677734e+00 -5.702699279785156250e+01 -3.969881534576416016e+00 -2.204129695892333984e+00 -3.969881534576416016e+00 -8.194840240478515625e+01
-5.574019622802734375e+01 1.233553791046142578e+01 5.827000617980957031e+00 1.233553791046142578e+01 -2.963558959960937500e+01 3.991560459136962891e+00 5.827000617980957031e+00 3.991560459136962891e+00 -4.071275329589843750e+01
-2.891792488098144531e+01 -1.147798061370849609e+01 6.686633110046386719e+00 -1.147798061370849609e+01 -3.545746231079101562e+01 -1.521472334861755371e+00 6.686633110046386719e+00 -1.521472334861755371e+00 -5.669897079467773438e+01
-3.743990707397460938e+01 -1.434778332710266113e+00 8.071393966674804688e+00 -1.434778332710266113e+00 -4.345223999023437500e+01 1.518460273742675781e+01 8.071393966674804688e+00 1.518460273742675781e+01 -6.506716918945312500e+01
-3.724201583862304688e+01 1.171387577056884766e+01 6.382184505462646484e+00 1.171387577056884766e+01 -2.632913780212402344e+01 2.180776214599609375e+01 6.382184505462646484e+00 2.180776214599609375e+01 -5.309996795654296875e+01
-2.879022789001464844e+01 1.682302284240722656e+01 -7.079761505126953125e+00 1.682302284240722656e+01 -4.569792938232421875e+01 -9.607130050659179688e+00 -7.079761505126953125e+00 -9.607130050659179688e+00 -5.186973190307617188e+01
-6.180754852294921875e+01 1.259881019592285156e+01 -5.204682350158691406e+00 1.259881019592285156e+01 -4.550763320922851562e+01 -2.767387151718139648e+00 -5.204682350158691406e+00 -2.767387151718139648e+00 -8.240391540527343750e+01
-3.768059921264648438e+01 5.962865829467773438e+00 -6.236101150512695312e+00 5.962865829467773438e+00 -3.923420333862304688e+01 1.055518913269042969e+01 -6.236101150512695312e+00 1.055518913269042969e+01 -4.979142379760742188e+01
-2.298823738098144531e+01 7.398798942565917969e+00 6.462387561798095703e+00 7.398798942565917969e+00 -3.622880554199218750e+01 8.907532691955566406e+00 6.462387561798095703e+00 8.907532691955566406e+00 -6.305044174194335938e+01
-3.179616928100585938e+01 1.290958881378173828e+00 -1.040488529205322266e+01 1.290958881378173828e+00 -2.432969474792480469e+01 -1.436468315124511719e+01 -1.040488529205322266e+01 -1.436468315124511719e+01 -4.300539016723632812e+01
-3.620880889892578125e+01 2.257553291320800781e+01 1.126925277709960938e+01 2.257553291320800781e+01 -4.055905151367187500e+01 -1.638235473632812500e+01 1.126925277709960938e+01 -1.638235473632812500e+01 -4.565544891357421875e+01
-2.851506423950195312e+01 -2.570111751556396484e+00 -1.363081187009811401e-01 -2.570111751556396484e+00 -3.007291793823242188e+01 -2.441059827804565430e+00 -1.363081187009811401e-01 -2.441059827804565430e+00 -4.563051223754882812e+01
-4.921625518798828125e+01 -1.747714042663574219e+01 1.954572677612304688e+01 -1.747714042663574219e+01 -7.232128143310546875e+01 1.435753250122070312e+01 1.954572677612304688e+01 1.435753250122070312e+01 -4.209326553344726562e+01
-3.817051696777343750e+01 3.448520660400390625e+00 3.877134323120117188e+00 3.448520660400390625e+00 -7.886754608154296875e+01 1.209958648681640625e+01 3.877134323120117188e+00 1.209958648681640625e+01 -3.847580718994140625e+01
-5.146651458740234375e+01 6.744353294372558594e+00 -3.180994987487792969e-01 6.744353294372558594e+00 -7.761622619628906250e+01 8.987589836120605469e+00 -3.180994987487792969e-01 8.987589836120605469e+00 -4.896347808837890625e+01
-4.277692794799804688e+01 8.097468376159667969e+00 2.420633125305175781e+01 8.097468376159667969e+00 -3.575906372070312500e+01 -7.609530925750732422e+00 2.420633125305175781e+01 -7.609530925750732422e+00 -4.808205795288085938e+01
-4.677678298950195312e+01 8.728236198425292969e+00 4.724357604980468750e+00 8.728236198425292969e+00 -6.690648651123046875e+01 4.658320426940917969e+00 4.724357604980468750e+00 4.658320426940917969e+00 -6.161775588989257812e+01
-4.807820129394531250e+01 -5.075201988220214844e-01 1.021908473968505859e+01 -5.075201988220214844e-01 -6.000893783569335938e+01 1.169146060943603516e+01 1.021908473968505859e+01 1.169146060943603516e+01 -6.313692855834960938e+01
-6.429563903808593750e+01 6.311673641204833984e+00 4.354998588562011719e+00 6.311673641204833984e+00 -5.891252899169921875e+01 7.292307853698730469e+00 4.354998588562011719e+00 7.292307853698730469e+00 -8.340076446533203125e+01
-7.319972991943359375e+01 6.694396018981933594e+00 -8.261964797973632812e+00 6.694396018981933594e+00 -6.702005767822265625e+01 -4.369647979736328125e+00 -8.261964797973632812e+00 -4.369647979736328125e+00 -7.311064910888671875e+01
-2.608989715576171875e+01 -1.670228004455566406e+01 -1.564037799835205078e+00 -1.670228004455566406e+01 -4.047981643676757812e+01 5.651034832000732422e+00 -1.564037799835205078e+00 5.651034832000732422e+00 -8.032082557678222656e+00
-4.172892379760742188e+01 -1.208368968963623047e+01 -7.509015083312988281e+00 -1.208368968963623047e+01 -6.461941528320312500e+01 -4.853429794311523438e+00 -7.509015083312988281e+00 -4.853429794311523438e+00 -2.703942108154296875e+01
-3.623186111450195312e+01 9.573281288146972656e+00 -1.446564674377441406e+00 9.573281288146972656e+00 -3.396531677246093750e+01 -4.630553245544433594e+00 -1.446564674377441406e+00 -4.630553245544433594e+00 -3.687287902832031250e+01
-6.100752639770507812e+01 -8.176274895668029785e-01 -2.050698661804199219e+01 -8.176274895668029785e-01 -4.132177734375000000e+01 -1.154628372192382812e+01 -2.050698661804199219e+01 -1.154628372192382812e+01 -3.606784057617187500e+01
-2.505217170715332031e+01 3.359781980514526367e+00 -1.551701903343200684e+00 3.359781980514526367e+00 -2.778727149963378906e+01 -1.020693111419677734e+01 -1.551701903343200684e+00 -1.020693111419677734e+01 -4.468482589721679688e+01
-4.984952545166015625e+01 -7.272943973541259766e+00 1.201689815521240234e+01 -7.272943973541259766e+00 -5.064600372314453125e+01 2.121776580810546875e+00 1.201689815521240234e+01 2.121776580810546875e+00 -6.289484405517578125e+01
-5.781862640380859375e+01 -2.294262886047363281e+00 -1.834648996591567993e-01 -2.294262886047363281e+00 -4.996375274658203125e+01 1.792473435401916504e+00 -1.834648996591567993e-01 1.792473435401916504e+00 -3.191583442687988281e+01
-6.291860961914062500e+01 -9.043598175048828125e+00 1.483885955810546875e+01 -9.043598175048828125e+00 -5.268645477294921875e+01 4.413939416408538818e-01 1.483885955810546875e+01 4.413939416408538818e-01 -3.582669067382812500e+01
-3.898613357543945312e+01 2.216519355773925781e+00 8.791972160339355469e+00 2.216519355773925781e+00 -5.786904144287109375e+01 5.705420494079589844e+00 8.791972160339355469e+00 5.705420494079589844e+00 -5.914308929443359375e+01
-7.757234954833984375e+01 -7.138997077941894531e+00 1.754749488830566406e+01 -7.138997077941894531e+00 -6.417260742187500000e+01 -9.875865936279296875e+00 1.754749488830566406e+01 -9.875865936279296875e+00 -6.138495254516601562e+01
-7.418862152099609375e+01 -4.624163627624511719e+00 -7.066913604736328125e+00 -4.624163627624511719e+00 -5.675247955322265625e+01 -6.825975608080625534e-03 -7.066913604736328125e+00 -6.825975608080625534e-03 -7.112236022949218750e+01
-6.952597045898437500e+01 -6.047537803649902344e+00 6.239635944366455078e+00 -6.047537803649902344e+00 -4.976877975463867188e+01 -1.446547150611877441e+00 6.239635944366455078e+00 -1.446547150611877441e+00 -4.414010238647460938e+01
-5.390516281127929688e+01 1.971298027038574219e+01 -1.991955566406250000e+01 1.971298027038574219e+01 -6.017046737670898438e+01 -5.208460807800292969e+00 -1.991955566406250000e+01 -5.208460807800292969e+00 -4.179158020019531250e+01
-3.012900733947753906e+01 -1.168163657188415527e+00 3.852836847305297852e+00 -1.168163657188415527e+00 -3.429428100585937500e+01 -7.706735730171203613e-01 3.852836847305297852e+00 -7.706735730171203613e-01 -6.544648742675781250e+01
-4.321692657470703125e+01 2.922095775604248047e+00 1.710677909851074219e+01 2.922095775604248047e+00 -5.037775802612304688e+01 -8.224559783935546875e+00 1.710677909851074219e+01 -8.224559783935546875e+00 -3.554858016967773438e+01
-7.115828704833984375e+01 5.519535541534423828e+00 -2.356893062591552734e+00 5.519535541534423828e+00 -5.519548797607421875e+01 -5.459539413452148438e+00 -2.356893062591552734e+00 -5.459539413452148438e+00 -5.431489562988281250e+01
-7.954216766357421875e+01 2.624973869323730469e+01 1.314449310302734375e+01 2.624973869323730469e+01 -5.393162918090820312e+01 -7.483711719512939453e+00 1.314449310302734375e+01 -7.483711719512939453e+00 -7.242284393310546875e+01
-2.688086318969726562e+01 7.939827919006347656e+00 -8.211552619934082031e+00 7.939827919006347656e+00 -3.323286819458007812e+01 3.531025171279907227e+00 -8.211552619934082031e+00 3.531025171279907227e+00 -2.192597007751464844e+01
-5.618390655517578125e+01 -7.076831340789794922e+00 -3.225125312805175781e+00 -7.076831340789794922e+00 -6.508203887939453125e+01 7.615028858184814453e+00 -3.225125312805175781e+00 7.615028858184814453e+00 -6.240829849243164062e+01
-2.114385414123535156e+01 -6.149250864982604980e-01 4.064589023590087891e+00 -6.149250864982604980e-01 -1.904065322875976562e+01 1.293031406402587891e+01 4.064589023590087891e+00 1.293031406402587891e+01 -3.350517272949218750e+01
-8.023396301269531250e+01 6.175331592559814453e+00 6.937860965728759766e+00 6.175331592559814453e+00 -8.232277679443359375e+01 -1.333543682098388672e+01 6.937860965728759766e+00 -1.333543682098388672e+01 -5.537706756591796875e+01
-7.985375213623046875e+01 7.950995922088623047e+00 1.171862959861755371e+00 7.950995922088623047e+00 -4.394784927368164062e+01 1.150513839721679688e+01 1.171862959861755371e+00 1.150513839721679688e+01 -3.042780494689941406e+01
-3.916225051879882812e+01 -9.560172080993652344e+00 1.815568923950195312e+01 -9.560172080993652344e+00 -2.586149406433105469e+01 -1.883030509948730469e+01 1.815568923950195312e+01 -1.883030509948730469e+01 -2.034591102600097656e+01
-6.622637176513671875e+01 -5.996088027954101562e+00 -1.818427467346191406e+01 -5.996088027954101562e+00 -4.818730545043945312e+01 -1.357560348510742188e+01 -1.818427467346191406e+01 -1.357560348510742188e+01 -5.599129104614257812e+01
-5.319090270996093750e+01 1.474540591239929199e+00 3.504660606384277344e+00 1.474540591239929199e+00 -4.844525146484375000e+01 1.104570865631103516e+01 3.504660606384277344e+00 1.104570865631103516e+01 -5.284411239624023438e+01
-5.243094253540039062e+01 1.590450763702392578e+01 8.378428459167480469e+00 1.590450763702392578e+01 -3.015435981750488281e+01 -3.979489088058471680e+00 8.378428459167480469e+00 -3.979489088058471680e+00 -3.010921287536621094e+01
-4.692482757568359375e+01 6.426909565925598145e-01 -9.234290570020675659e-02 6.426909565925598145e-01 -4.334661865234375000e+01 6.340757012367248535e-01 -9.234290570020675659e-02 6.340757012367248535e-01 -7.324207305908203125e+01
-3.295069503784179688e+01 -7.651249408721923828e+00 -1.952878761291503906e+01 -7.651249408721923828e+00 -4.890654754638671875e+01 -3.181469678878784180e+00 -1.952878761291503906e+01 -3.181469678878784180e+00 -2.001512145996093750e+01
-5.079039001464843750e+01 -5.206124782562255859e+00 -5.449434280395507812e+00 -5.206124782562255859e+00 -3.981026840209960938e+01 -2.600019454956054688e+00 -5.449434280395507812e+00 -2.600019454956054688e+00 -4.345825195312500000e+01
-3.398980712890625000e+01 3.419955730438232422e+00 2.473015546798706055e+00 3.419955730438232422e+00 -4.497355270385742188e+01 2.131441593170166016e+00 2.473015546798706055e+00 2.131441593170166016e+00 -4.658997344970703125e+01
-6.368152618408203125e+01 5.270671844482421875e+00 -1.837826490402221680e+00 5.270671844482421875e+00 -6.198541259765625000e+01 -6.982586383819580078e-01 -1.837826490402221680e+00 -6.982586383819580078e-01 -5.109482192993164062e+01
-4.750340270996093750e+01 1.662242126464843750e+01 1.460907757282257080e-01 1.662242126464843750e+01 -4.587596130371093750e+01 3.090849876403808594e+00 1.460907757282257080e-01 3.090849876403808594e+00 -3.046238517761230469e+01
-4.937677001953125000e+01 -3.381342411041259766e+00 1.940514755249023438e+01 -3.381342411041259766e+00 -5.957580184936523438e+01 -2.491515874862670898e+00 1.940514755249023438e+01 -2.491515874862670898e+00 -5.681291580200195312e+01
-8.039194107055664062e+00 -1.421011328697204590e+00 -1.252528667449951172e+01 -1.421011328697204590e+00 -2.840051460266113281e+01 -6.940443515777587891e+00 -1.252528667449951172e+01 -6.940443515777587891e+00 -3.346367263793945312e+01
-7.808994293212890625e+01 2.452280282974243164e+00 1.029478645324707031e+01 2.452280282974243164e+00 -2.957768821716308594e+01 4.415901660919189453e+00 1.029478645324707031e+01 4.415901660919189453e+00 -6.629010772705078125e+01
-5.742894744873046875e+01 -1.029442214965820312e+01 -1.541213512420654297e+01 -1.029442214965820312e+01 -4.550100326538085938e+01 1.357751464843750000e+01 -1.541213512420654297e+01 1.357751464843750000e+01 -7.819084930419921875e+01
-6.630597686767578125e+01 -5.123316764831542969e+00 3.970232486724853516e+00 -5.123316764831542969e+00 -5.244196319580078125e+01 9.394001960754394531e+00 3.970232486724853516e+00 9.394001960754394531e+00 -5.448973083496093750e+01
-3.385574722290039062e+01 1.494636631011962891e+01 -2.357874870300292969e+00 1.494636631011962891e+01 -5.636944580078125000e+01 4.725318908691406250e+00 -2.357874870300292969e+00 4.725318908691406250e+00 -6.162171173095703125e+01
-5.172684097290039062e+01 9.821375846862792969e+00 1.064198589324951172e+01 9.821375846862792969e+00 -5.763041687011718750e+01 -2.906456708908081055e+00 1.064198589324951172e+01 -2.906456708908081055e+00 -4.073873519897460938e+01
-4.855858612060546875e+01 4.309524059295654297e+00 5.688762664794921875e+00 4.309524059295654297e+00 -3.201998519897460938e+01 -7.049869060516357422e+00 5.688762664794921875e+00 -7.049869060516357422e+00 -3.644630050659179688e+01
-5.277532958984375000e+01 -1.588613796234130859e+01 -9.713984489440917969e+00 -1.588613796234130859e+01 -2.053736305236816406e+01 -1.040167903900146484e+01 -9.713984489440917969e+00 -1.040167903900146484e+01 -3.172156333923339844e+01
-2.179484939575195312e+01 -1.159463763236999512e+00 9.952350616455078125e+00 -1.159463763236999512e+00 -4.467884063720703125e+01 2.135786056518554688e+01 9.952350616455078125e+00 2.135786056518554688e+01 -7.256475830078125000e+01
-6.326080703735351562e+01 -1.999064254760742188e+01 -8.817222118377685547e-01 -1.999064254760742188e+01 -7.629214477539062500e+01 3.921214342117309570e-01 -8.817222118377685547e-01 3.921214342117309570e-01 -3.514828872680664062e+01
-4.749416351318359375e+01 1.118602156639099121e+00 4.477537631988525391e+00 1.118602156639099121e+00 -4.140679550170898438e+01 -7.888980507850646973e-01 4.477537631988525391e+00 -7.888980507850646973e-01 -5.259792709350585938e+01
-3.386050033569335938e+01 -5.689354896545410156e+00 1.717859458923339844e+01 -5.689354896545410156e+00 -3.174036407470703125e+01 -1.029614448547363281e+00 1.717859458923339844e+01 -1.029614448547363281e+00 -3.824492645263671875e+01
-3.417557144165039062e+01 -7.169917583465576172e+00 1.257944583892822266e+00 -7.169917583465576172e+00 -2.154457092285156250e+01 -4.385835170745849609e+00 1.257944583892822266e+00 -4.385835170745849609e+00 -3.661329269409179688e+01
-5.577314758300781250e+01 1.280487155914306641e+01 -3.965309262275695801e-01 1.280487155914306641e+01 -6.184335708618164062e+01 -2.119812011718750000e+00 -3.965309262275695801e-01 -2.119812011718750000e+00 -4.035949325561523438e+01
-4.872739791870117188e+01 -7.482662677764892578e+00 1.552510547637939453e+01 -7.482662677764892578e+00 -5.647662353515625000e+01 1.135461521148681641e+01 1.552510547637939453e+01 1.135461521148681641e+01 -6.353866577148437500e+01
-5.448393630981445312e+01 -4.093066692352294922e+00 9.769492149353027344e+00 -4.093066692352294922e+00 -6.131115341186523438e+01 -1.125545597076416016e+01 9.769492149353027344e+00 -1.125545597076416016e+01 -5.081534576416015625e+01
-3.264255142211914062e+01 -2.536416435241699219e+01 1.136944484710693359e+01 -2.536416435241699219e+01 -4.523373794555664062e+01 -1.243089580535888672e+01 1.136944484710693359e+01 -1.243089580535888672e+01 -3.495302581787109375e+01
-7.184357452392578125e+01 1.003801155090332031e+01 9.995012283325195312e+00 1.003801155090332031e+01 -5.274091339111328125e+01 -1.156984710693359375e+01 9.995012283325195312e+00 -1.156984710693359375e+01 -5.741252136230468750e+01
-5.415463638305664062e+01 -5.404616832733154297e+00 -2.622867107391357422e+00 -5.404616832733154297e+00 -5.132304382324218750e+01 -2.122473001480102539e+00 -2.622867107391357422e+00 -2.122473001480102539e+00 -5.090695571899414062e+01
-6.255413818359375000e+01 -9.663510322570800781e-01 -5.440559387207031250e+00 -9.663510322570800781e-01 -4.676736450195312500e+01 -5.048965811729431152e-01 -5.440559387207031250e+00 -5.048965811729431152e-01 -4.561346054077148438e+01
-6.430791473388671875e+01 -8.354798316955566406e+00 8.021489143371582031e+00 -8.354798316955566406e+00 -5.319716262817382812e+01 -4.482644557952880859e+00 8.021489143371582031e+00 -4.482644557952880859e+00 -6.911357879638671875e+01
-6.306171417236328125e+01 -4.532778263092041016e+00 5.070477724075317383e-01 -4.532778263092041016e+00 -3.582738113403320312e+01 1.095825195312500000e+00 5.070477724075317383e-01 1.095825195312500000e+00 -3.420391082763671875e+01
-7.066330718994140625e+01 -2.556538581848144531e+00 6.533204078674316406e+00 -2.556538581848144531e+00 -3.475173950195312500e+01 -1.398804855346679688e+01 6.533204078674316406e+00 -1.398804855346679688e+01 -6.830540466308593750e+01
-4.779485321044921875e+01 -1.691731810569763184e+00 -1.870366668701171875e+01 -1.691731810569763184e+00 -4.700283050537109375e+01 1.302068996429443359e+01 -1.870366668701171875e+01 1.302068996429443359e+01 -6.011026000976562500e+01
-5.493629455566406250e+01 -8.291081190109252930e-01 -2.228008651733398438e+01 -8.291081190109252930e-01 -5.535913848876953125e+01 8.189061164855957031e+00 -2.228008651733398438e+01 8.189061164855957031e+00 -6.003784942626953125e+01
-2.974918556213378906e+01 5.857655525207519531e+00 1.721006202697753906e+01 5.857655525207519531e+00 -1.872085380554199219e+01 6.178914308547973633e-01 1.721006202697753906e+01 6.178914308547973633e-01 -3.986257171630859375e+01
-4.015668487548828125e+01 -8.126680374145507812e+00 -2.123791128396987915e-01 -8.126680374145507812e+00 -6.279432296752929688e+01 -8.960076332092285156e+00 -2.123791128396987915e-01 -8.960076332092285156e+00 -6.978086853027343750e+01
-5.467622756958007812e+01 -1.931439208984375000e+01 -1.189791774749755859e+01 -1.931439208984375000e+01 -5.469018554687500000e+01 -1.871475982666015625e+01 -1.189791774749755859e+01 -1.871475982666015625e+01 -5.222043228149414062e+01
-6.127178955078125000e+01 2.401361227035522461e+00 4.149059295654296875e+00 2.401361227035522461e+00 -1.041794281005859375e+02 -3.185109138488769531e+00 4.149059295654296875e+00 -3.185109138488769531e+00 -6.341543579101562500e+01
-4.276378250122070312e+01 7.249783039093017578e+00 -9.834849357604980469e+00 7.249783039093017578e+00 -3.818454360961914062e+01 1.308027076721191406e+01 -9.834849357604980469e+00 1.308027076721191406e+01 -4.053923034667968750e+01
-5.731890869140625000e+01 8.296931266784667969e+00 3.352376461029052734e+00 8.296931266784667969e+00 -6.203843688964843750e+01 7.226255416870117188e+00 3.352376461029052734e+00 7.226255416870117188e+00 -4.649530029296875000e+01
-4.480461883544921875e+01 6.024004936218261719e+00 6.678639888763427734e+00 6.024004936218261719e+00 -3.081844139099121094e+01 -6.609803676605224609e+00 6.678639888763427734e+00 -6.609803676605224609e+00 -4.729707336425781250e+01
-2.111975097656250000e+01 -7.090615272521972656e+00 -1.443340682983398438e+01 -7.090615272521972656e+00 -4.889725875854492188e+01 7.078621387481689453e+00 -1.443340682983398438e+01 7.078621387481689453e+00 -3.120035552978515625e+01
-7.664752197265625000e+01 -1.153674316406250000e+01 1.732973480224609375e+01 -1.153674316406250000e+01 -3.106542587280273438e+01 7.585702896118164062e+00 1.732973480224609375e+01 7.585702896118164062e+00 -2.634964942932128906e+01
-4.917070388793945312e+01 6.836594104766845703e+00 -7.416244983673095703e+00 6.836594104766845703e+00 -1.296426200866699219e+01 -5.520054340362548828e+00 -7.416244983673095703e+00 -5.520054340362548828e+00 -3.520997619628906250e+01
-3.144457817077636719e+01 -6.339960575103759766e+00 -6.253600120544433594e+00 -6.339960575103759766e+00 -5.103136444091796875e+01 -4.872355461120605469e+00 -6.253600120544433594e+00 -4.872355461120605469e+00 -6.243400192260742188e+01
-5.698573303222656250e+01 1.313839721679687500e+01 1.797522354125976562e+01 1.313839721679687500e+01 -5.425239562988281250e+01 9.717052459716796875e+00 1.797522354125976562e+01 9.717052459716796875e+00 -5.987071228027343750e+01
-2.960022163391113281e+01 1.988052558898925781e+01 1.241062831878662109e+01 1.988052558898925781e+01 -4.012774658203125000e+01 1.796761131286621094e+01 1.241062831878662109e+01 1.796761131286621094e+01 -2.450479507446289062e+01
-4.595437240600585938e+01 9.215043067932128906e+00 1.332300186157226562e+01 9.215043067932128906e+00 -5.088511276245117188e+01 7.842946052551269531e+00 1.332300186157226562e+01 7.842946052551269531e+00 -5.257414245605468750e+01
-5.323017120361328125e+01 -5.912589073181152344e+00 5.640990138053894043e-01 -5.912589073181152344e+00 -3.983980941772460938e+01 2.925701141357421875e+01 5.640990138053894043e-01 2.925701141357421875e+01 -3.547935867309570312e+01
-4.693397903442382812e+01 -5.351121425628662109e-01 3.242204189300537109e+00 -5.351121425628662109e-01 -2.612381362915039062e+01 9.963928222656250000e+00 3.242204189300537109e+00 9.963928222656250000e+00 -5.977915573120117188e+01
-4.244240951538085938e+01 1.353377532958984375e+01 -3.655221700668334961e+00 1.353377532958984375e+01 -4.009281921386718750e+01 1.161112976074218750e+01 -3.655221700668334961e+00 1.161112976074218750e+01 -4.828767013549804688e+01
-4.705202865600585938e+01 -5.264247894287109375e+00 1.569058513641357422e+01 -5.264247894287109375e+00 -4.434897994995117188e+01 7.616611957550048828e+00 1.569058513641357422e+01 7.616611957550048828e+00 -5.483170318603515625e+01
-4.898312377929687500e+01 5.676572322845458984e+00 8.148051261901855469e+00 5.676572322845458984e+00 -3.818437576293945312e+01 -5.381221294403076172e+00 8.148051261901855469e+00 -5.381221294403076172e+00 -2.672592735290527344e+01
-5.449282073974609375e+01 -7.888895511627197266e+00 1.169196987152099609e+01 -7.888895511627197266e+00 -4.487680053710937500e+01 1.100471496582031250e+01 1.169196987152099609e+01 1.100471496582031250e+01 -3.497275161743164062e+01
-4.174443054199218750e+01 -3.115034103393554688e+00 4.957731723785400391e+00 -3.115034103393554688e+00 -4.170358276367187500e+01 1.002770996093750000e+01 4.957731723785400391e+00 1.002770996093750000e+01 -2.932608032226562500e+01
-6.771380615234375000e+01 1.369609069824218750e+01 1.698548316955566406e+01 1.369609069824218750e+01 -6.807565307617187500e+01 5.279866218566894531e+00 1.698548316955566406e+01 5.279866218566894531e+00 -5.468563842773437500e+01
-5.808404159545898438e+01 -1.858478784561157227e+00 3.106547832489013672e+00 -1.858478784561157227e+00 -3.471356201171875000e+01 -1.589559614658355713e-01 3.106547832489013672e+00 -1.589559614658355713e-01 -4.500415802001953125e+01
-4.445536422729492188e+01 -4.486064016819000244e-01 -1.422636127471923828e+01 -4.486064016819000244e-01 -5.368078613281250000e+01 -6.420703411102294922e+00 -1.422636127471923828e+01 -6.420703411102294922e+00 -5.161365890502929688e+01
-7.402960205078125000e+01 -1.633844852447509766e+00 3.821620702743530273e+00 -1.633844852447509766e+00 -6.969850921630859375e+01 -4.411329030990600586e-01 3.821620702743530273e+00 -4.411329030990600586e-01 -6.776613616943359375e+01
-6.255318832397460938e+01 1.394554710388183594e+01 -2.325908660888671875e+00 1.394554710388183594e+01 -5.514054870605468750e+01 -2.314323425292968750e+00 -2.325908660888671875e+00 -2.314323425292968750e+00 -6.498055267333984375e+01
-2.772501373291015625e+01 -1.452435684204101562e+01 -2.105257511138916016e+00 -1.452435684204101562e+01 -5.406641387939453125e+01 -1.948097467422485352e+00 -2.105257511138916016e+00 -1.948097467422485352e+00 -2.959255790710449219e+01
-2.113963508605957031e+01 9.816067695617675781e+00 4.385089874267578125e+00 9.816067695617675781e+00 -6.016247177124023438e+01 2.816256761550903320e+00 4.385089874267578125e+00 2.816256761550903320e+00 -3.266677856445312500e+01
-7.294741058349609375e+01 1.082450103759765625e+01 -5.927741050720214844e+00 1.082450103759765625e+01 -7.301287841796875000e+01 -7.136837005615234375e+00 -5.927741050720214844e+00 -7.136837005615234375e+00 -3.771583175659179688e+01
-6.944799804687500000e+01 1.212439823150634766e+01 4.532124996185302734e+00 1.212439823150634766e+01 -5.729962539672851562e+01 -1.598567771911621094e+01 4.532124996185302734e+00 -1.598567771911621094e+01 -6.264834213256835938e+01
-4.579903030395507812e+01 9.054586410522460938e+00 -2.249050331115722656e+01 9.054586410522460938e+00 -4.456061172485351562e+01 8.410482108592987061e-02 -2.249050331115722656e+01 8.410482108592987061e-02 -4.785593795776367188e+01
-5.124111938476562500e+01 -4.186450541019439697e-01 4.340636730194091797e+00 -4.186450541019439697e-01 -2.745086288452148438e+01 -9.432476758956909180e-01 4.340636730194091797e+00 -9.432476758956909180e-01 -3.977778244018554688e+01
-6.849498748779296875e+01 -5.121127128601074219e+00 5.732779502868652344e+00 -5.121127128601074219e+00 -5.090883636474609375e+01 3.114948511123657227e+00 5.732779502868652344e+00 3.114948511123657227e+00 -3.104080963134765625e+01
-4.807416152954101562e+01 -6.289265632629394531e+00 1.051652336120605469e+01 -6.289265632629394531e+00 -4.567389678955078125e+01 -1.163738441467285156e+01 1.051652336120605469e+01 -1.163738441467285156e+01 -3.735995483398437500e+01
-4.225643539428710938e+01 -8.887663841247558594e+00 8.187497138977050781e+00 -8.887663841247558594e+00 -5.241805648803710938e+01 -5.098891258239746094e+00 8.187497138977050781e+00 -5.098891258239746094e+00 -6.993711853027343750e+01
-4.541101074218750000e+01 -1.353077888488769531e+01 6.798943996429443359e+00 -1.353077888488769531e+01 -6.576664733886718750e+01 1.416726493835449219e+01 6.798943996429443359e+00 1.416726493835449219e+01 -3.292251968383789062e+01
-2.902647209167480469e+01 8.037170410156250000e+00 1.153246307373046875e+01 8.037170410156250000e+00 -4.928310012817382812e+01 -6.543374061584472656e+00 1.153246307373046875e+01 -6.543374061584472656e+00 -6.645468902587890625e+01
-2.238601493835449219e+01 1.984562683105468750e+01 1.551932621002197266e+01 1.984562683105468750e+01 -5.166379928588867188e+01 1.412812137603759766e+01 1.551932621002197266e+01 1.412812137603759766e+01 -1.771265029907226562e+01
-7.194294738769531250e+01 9.508296012878417969e+00 7.250328540802001953e+00 9.508296012878417969e+00 -6.197703170776367188e+01 -1.870941925048828125e+01 7.250328540802001953e+00 -1.870941925048828125e+01 -6.720011901855468750e+01
-2.148123359680175781e+01 -2.497193574905395508e+00 -1.141828179359436035e+00 -2.497193574905395508e+00 -1.893740272521972656e+01 1.647964477539062500e+00 -1.141828179359436035e+00 1.647964477539062500e+00 -6.895738220214843750e+01
-4.651745605468750000e+01 -1.392605018615722656e+01 -5.149917125701904297e+00 -1.392605018615722656e+01 -5.406634521484375000e+01 7.080841064453125000e+00 -5.149917125701904297e+00 7.080841064453125000e+00 -5.647066879272460938e+01
-3.166020011901855469e+01 -5.872869968414306641e+00 6.818706989288330078e+00 -5.872869968414306641e+00 -4.189247894287109375e+01 -7.523975849151611328e+00 6.818706989288330078e+00 -7.523975849151611328e+00 -5.847037506103515625e+01
-4.636239624023437500e+01 5.556717395782470703e+00 -8.761836051940917969e+00 5.556717395782470703e+00 -7.851659393310546875e+01 8.061234474182128906e+00 -8.761836051940917969e+00 8.061234474182128906e+00 -6.339195251464843750e+01