-6.066280078125000000e+04
-6.065210156250000000e+04
-6.063778125000000000e+04
-6.063859375000000000e+04
-6.063341796875000000e+04
-6.063114062500000000e+04
-6.063052343750000000e+04
-6.063001171875000000e+04
-6.063062890625000000e+04
-6.063186718750000000e+04
-6.062985937500000000e+04
-6.063473437500000000e+04
-6.063512109375000000e+04
-6.063042187500000000e+04
-6.062937109375000000e+04
-6.063062109375000000e+04
-6.063117187500000000e+04
-6.062695703125000000e+04
-6.062220703125000000e+04
-6.062681250000000000e+04
-6.063127734375000000e+04
-6.062672656250000000e+04
-6.063064843750000000e+04
-6.062934375000000000e+04
-6.062932812500000000e+04
-6.062799218750000000e+04
-6.062696875000000000e+04
-6.062846093750000000e+04
-6.064467578125000000e+04
-6.063789843750000000e+04
-6.063621093750000000e+04
-6.063651562500000000e+04
-6.063298046875000000e+04
-6.063245703125000000e+04
-6.063800390625000000e+04
-6.063430078125000000e+04
-6.063746484375000000e+04
-6.063573437500000000e+04
-6.063682421875000000e+04
-6.063682031250000000e+04
-6.063484375000000000e+04
-6.062939453125000000e+04
-6.062997656250000000e+04
-6.063890234375000000e+04
-6.063250781250000000e+04
-6.063064453125000000e+04
-6.063080859375000000e+04
-6.063392968750000000e+04
-6.062880468750000000e+04
-6.062861328125000000e+04
-6.063261328125000000e+04
-6.063533203125000000e+04
-6.063348437500000000e+04
-6.069317187500000000e+04
-6.065426171875000000e+04
-6.064501562500000000e+04
-6.063926953125000000e+04
-6.061892578125000000e+04
-6.061504296875000000e+04
-6.062058203125000000e+04
-6.062038281250000000e+04
-6.061681250000000000e+04
-6.061575000000000000e+04
-6.062036328125000000e+04
-6.061594140625000000e+04
-6.061879687500000000e+04
-6.061673828125000000e+04
-6.061206250000000000e+04
-6.061638671875000000e+04
-6.061880078125000000e+04
-6.061868359375000000e+04
-6.061174609375000000e+04
-6.061559375000000000e+04
-6.065600000000000000e+04
-6.063576171875000000e+04
-6.062402343750000000e+04
-6.062471875000000000e+04
-6.062363281250000000e+04
-6.063052734375000000e+04
-6.062733593750000000e+04
-6.062356250000000000e+04
-6.062226953125000000e+04
-6.062300000000000000e+04
-6.062432421875000000e+04
-6.062326953125000000e+04
-6.062535546875000000e+04
-6.062759375000000000e+04
-6.061969531250000000e+04
-6.062550781250000000e+04
-6.061873828125000000e+04
-6.062062500000000000e+04
-6.062085156250000000e+04
-6.061980468750000000e+04
-6.062184375000000000e+04
-6.062327734375000000e+04
-6.061964453125000000e+04
-6.061878515625000000e+04
-6.061894140625000000e+04
-6.061646484375000000e+04
-6.061793359375000000e+04
-6.061895703125000000e+04
-6.062011718750000000e+04
-6.061981250000000000e+04
-6.062249609375000000e+04
-6.062323046875000000e+04
-6.065137109375000000e+04
-6.062502343750000000e+04
-6.060472656250000000e+04
-6.061075781250000000e+04
-6.061144921875000000e+04
-6.060921875000000000e+04
-6.060680468750000000e+04
-6.060203906250000000e+04
-6.060969921875000000e+04
-6.060296093750000000e+04
-6.059880859375000000e+04
-6.060485156250000000e+04
-6.060039453125000000e+04
-6.060392968750000000e+04
-6.060061328125000000e+04
-6.060498046875000000e+04
-6.069317187500000000e+04
-6.065021093750000000e+04
-6.062003125000000000e+04
-6.061167968750000000e+04
-6.061037109375000000e+04
-6.060573437500000000e+04
-6.060391015625000000e+04
-6.060357812500000000e+04
-6.060113281250000000e+04
-6.060839062500000000e+04
-6.060654687500000000e+04
-6.060134765625000000e+04
-6.060788281250000000e+04
-6.060491796875000000e+04
-6.061115625000000000e+04
-6.060731250000000000e+04
-6.060665625000000000e+04
-6.060729687500000000e+04
-6.060983593750000000e+04
-6.060951562500000000e+04
-6.061037109375000000e+04
-6.069371093750000000e+04
-6.065116406250000000e+04
-6.063324218750000000e+04
-6.063010156250000000e+04
-6.062791015625000000e+04
-6.063295312500000000e+04
-6.062754687500000000e+04
-6.062946875000000000e+04
-6.062605468750000000e+04
-6.063144921875000000e+04
-6.062987890625000000e+04
-6.062793359375000000e+04
-6.062824609375000000e+04
-6.062591406250000000e+04
-6.062950000000000000e+04
-6.062882031250000000e+04
-6.063517187500000000e+04
-6.063080859375000000e+04
-6.062534765625000000e+04
-6.062556640625000000e+04
-6.063121093750000000e+04
-6.062987500000000000e+04
-6.062462109375000000e+04
-6.062985156250000000e+04
-6.065840625000000000e+04
-6.065420312500000000e+04
-6.064169531250000000e+04
-6.064001562500000000e+04
-6.063647656250000000e+04
-6.063728125000000000e+04
-6.063400000000000000e+04
-6.063795312500000000e+04
-6.063124609375000000e+04
-6.063534765625000000e+04
-6.063282812500000000e+04
-6.063421484375000000e+04
-6.063353515625000000e+04
-6.063227734375000000e+04
-6.063124218750000000e+04
-6.062796093750000000e+04
-6.063003515625000000e+04
-6.063312500000000000e+04
-6.061711328125000000e+04
-6.061784765625000000e+04
-6.061770703125000000e+04
-6.062127734375000000e+04
-6.061458203125000000e+04
-6.062092968750000000e+04
-6.062013671875000000e+04
-6.061745312500000000e+04
-6.061531250000000000e+04
-6.061692968750000000e+04
-6.062109375000000000e+04
-6.061888281250000000e+04
-6.061784765625000000e+04
-6.061954296875000000e+04
-6.062092187500000000e+04
-6.061728515625000000e+04
-6.061910937500000000e+04
-6.062173046875000000e+04
-6.069371093750000000e+04
-6.064801953125000000e+04
-6.063746875000000000e+04
-6.062121484375000000e+04
-6.062572265625000000e+04
-6.062346484375000000e+04
-6.062305859375000000e+04
-6.062429296875000000e+04
-6.061918359375000000e+04
-6.062437109375000000e+04
-6.062018359375000000e+04
-6.062357421875000000e+04
-6.061655859375000000e+04
-6.062105859375000000e+04
-6.062134375000000000e+04
-6.062173437500000000e+04
-6.062100781250000000e+04
-6.061804296875000000e+04
-6.061705859375000000e+04
-6.062332421875000000e+04
-6.062296093750000000e+04
-6.069371093750000000e+04
-6.063118359375000000e+04
-6.062301953125000000e+04
-6.061373828125000000e+04
-6.061128125000000000e+04
-6.061120312500000000e+04
-6.061112500000000000e+04
-6.060601953125000000e+04
-6.060504296875000000e+04
-6.061031250000000000e+04
-6.061293750000000000e+04
-6.060133203125000000e+04
-6.060139062500000000e+04
-6.060472656250000000e+04
-6.060129687500000000e+04
-6.060142578125000000e+04
-6.060906640625000000e+04
-6.060444140625000000e+04
-6.059723437500000000e+04
-6.060019140625000000e+04
-6.060764062500000000e+04
-6.060828515625000000e+04
-6.060181250000000000e+04
-6.059975390625000000e+04
-6.060148046875000000e+04
-6.064593750000000000e+04
-6.063210546875000000e+04
-6.062202734375000000e+04
-6.061837890625000000e+04
-6.061274218750000000e+04
-6.061353906250000000e+04
-6.061180859375000000e+04
-6.061321484375000000e+04
-6.061208203125000000e+04
-6.060973437500000000e+04
-6.061237109375000000e+04
-6.060943359375000000e+04
-6.061228906250000000e+04
-6.061375390625000000e+04
-6.061663281250000000e+04
-6.060775390625000000e+04
-6.061145703125000000e+04
-6.061321484375000000e+04
-6.061706640625000000e+04
-6.061292578125000000e+04
-6.061567968750000000e+04
-6.061006250000000000e+04
-6.060994921875000000e+04
-6.061268750000000000e+04
-6.069317968750000000e+04
-6.065362109375000000e+04
-6.064529296875000000e+04
-6.063930859375000000e+04
-6.063273828125000000e+04
-6.063477343750000000e+04
-6.063039453125000000e+04
-6.063321484375000000e+04
-6.063428906250000000e+04
-6.063328515625000000e+04
-6.063053906250000000e+04
-6.062871875000000000e+04
-6.062945312500000000e+04
-6.063226171875000000e+04
-6.062972656250000000e+04
-6.063168359375000000e+04
-6.063128125000000000e+04
-6.063160156250000000e+04
-6.063180468750000000e+04
-6.062598828125000000e+04
-6.062536328125000000e+04
-6.062860546875000000e+04
-6.062637890625000000e+04
-6.062504687500000000e+04
-6.062712890625000000e+04
-6.066248437500000000e+04
-6.065283593750000000e+04
-6.063974218750000000e+04
-6.063307421875000000e+04
-6.064037109375000000e+04
-6.063709765625000000e+04
-6.063391406250000000e+04
-6.063305859375000000e+04
-6.063362890625000000e+04
-6.063540625000000000e+04
-6.063885156250000000e+04
-6.063912890625000000e+04
-6.063317578125000000e+04
-6.063270312500000000e+04
-6.063101562500000000e+04
-6.063246875000000000e+04
-6.063291796875000000e+04
-6.063608593750000000e+04
-6.062981640625000000e+04
-6.063781640625000000e+04
-6.063619921875000000e+04
-6.065682812500000000e+04
-6.064162500000000000e+04
-6.062072265625000000e+04
-6.062272656250000000e+04
-6.062044921875000000e+04
-6.062216406250000000e+04
-6.062224609375000000e+04
-6.061982812500000000e+04
-6.061901953125000000e+04
-6.062073828125000000e+04
-6.062072265625000000e+04
-6.062204687500000000e+04
-6.062526953125000000e+04
-6.062004687500000000e+04
-6.062625390625000000e+04
-6.062549609375000000e+04
-6.062096093750000000e+04
-6.062086718750000000e+04
-6.061918750000000000e+04
-6.062351562500000000e+04
-6.061811718750000000e+04
-6.062017187500000000e+04
-6.062391796875000000e+04
-6.061768359375000000e+04
-6.061856250000000000e+04
-6.062211328125000000e+04
-6.062456640625000000e+04
-6.069317968750000000e+04
-6.065927734375000000e+04
-6.065650000000000000e+04
-6.063661328125000000e+04
-6.062493750000000000e+04
-6.062224609375000000e+04
-6.061975390625000000e+04
-6.062054687500000000e+04
-6.062028906250000000e+04
-6.062442968750000000e+04
-6.062559765625000000e+04
-6.062144921875000000e+04
-6.062495703125000000e+04
-6.062658984375000000e+04
-6.062088671875000000e+04
-6.062337109375000000e+04
-6.061657421875000000e+04
-6.062535156250000000e+04
-6.061801562500000000e+04
-6.062157421875000000e+04
-6.062026953125000000e+04
-6.069317968750000000e+04
-6.063118750000000000e+04
-6.061196093750000000e+04
-6.061496875000000000e+04
-6.060940234375000000e+04
-6.060971875000000000e+04
-6.061214062500000000e+04
-6.060435156250000000e+04
-6.060386328125000000e+04
-6.060853515625000000e+04
-6.060976171875000000e+04
-6.060902343750000000e+04
-6.060872265625000000e+04
-6.061127343750000000e+04
-6.060827343750000000e+04
-6.060984765625000000e+04
-6.060108203125000000e+04
-6.060460937500000000e+04
-6.060517578125000000e+04
-6.059944140625000000e+04
-6.069317968750000000e+04
-6.063260937500000000e+04
-6.062015234375000000e+04
-6.061274609375000000e+04
-6.061508203125000000e+04
-6.061427343750000000e+04
-6.060815625000000000e+04
-6.061067187500000000e+04
-6.061323437500000000e+04
-6.060697265625000000e+04
-6.060707421875000000e+04
-6.060586328125000000e+04
-6.061011718750000000e+04
-6.060957031250000000e+04
-6.060877343750000000e+04
-6.060620312500000000e+04
-6.060597265625000000e+04
-6.060373828125000000e+04
-6.060707812500000000e+04
-6.060829687500000000e+04
-6.060398437500000000e+04
-6.060512890625000000e+04
-6.064596484375000000e+04
-6.063595312500000000e+04
-6.063521093750000000e+04
-6.063859375000000000e+04
-6.063653515625000000e+04
-6.063231250000000000e+04
-6.063671875000000000e+04
-6.063337500000000000e+04
-6.063412890625000000e+04
-6.063383984375000000e+04
-6.063582031250000000e+04
-6.063429687500000000e+04
-6.063270312500000000e+04
-6.063022265625000000e+04
-6.062882421875000000e+04
-6.063047656250000000e+04
-6.062855468750000000e+04
-6.063017578125000000e+04
-6.062789843750000000e+04
-6.063035156250000000e+04
-6.063181640625000000e+04
-6.063291406250000000e+04
-6.063113671875000000e+04
-6.062605078125000000e+04
-6.062583593750000000e+04
-6.069245312500000000e+04
-6.066289453125000000e+04
-6.065940234375000000e+04
-6.065293359375000000e+04
-6.063791015625000000e+04
-6.063794921875000000e+04
-6.063511328125000000e+04
-6.063646875000000000e+04
-6.063719921875000000e+04
-6.063285156250000000e+04
-6.063287500000000000e+04
-6.063621093750000000e+04
-6.063781640625000000e+04
-6.063193359375000000e+04
-6.063636718750000000e+04
-6.063793359375000000e+04
-6.063955078125000000e+04
-6.063735546875000000e+04
-6.063510937500000000e+04
-6.063332812500000000e+04
-6.063907031250000000e+04
-6.063881250000000000e+04
-6.063339843750000000e+04
-6.063759765625000000e+04
-6.069245312500000000e+04
-6.065332421875000000e+04
-6.064855859375000000e+04
-6.062911328125000000e+04
-6.062321093750000000e+04
-6.062463281250000000e+04
-6.063253906250000000e+04
-6.062674218750000000e+04
-6.061937890625000000e+04
-6.062221484375000000e+04
-6.062641796875000000e+04
-6.061937500000000000e+04
-6.062566406250000000e+04
-6.062361718750000000e+04
-6.062216796875000000e+04
-6.061943359375000000e+04
-6.062236718750000000e+04
-6.062193359375000000e+04
-6.061892187500000000e+04
-6.061294531250000000e+04
-6.061563671875000000e+04
-6.061268359375000000e+04
-6.061736328125000000e+04
-6.062158984375000000e+04
-6.061414062500000000e+04
-6.065618750000000000e+04
-6.064658593750000000e+04
-6.063285937500000000e+04
-6.062862500000000000e+04
-6.062498437500000000e+04
-6.062181640625000000e+04
-6.062459765625000000e+04
-6.062551953125000000e+04
-6.062580468750000000e+04
-6.061908203125000000e+04
-6.062152343750000000e+04
-6.061936328125000000e+04
-6.062632421875000000e+04
-6.062782812500000000e+04
-6.062296484375000000e+04
-6.061646484375000000e+04
-6.062252343750000000e+04
-6.062480468750000000e+04
-6.062288281250000000e+04
-6.062471484375000000e+04
-6.061973046875000000e+04
-6.062469531250000000e+04
-6.062664062500000000e+04
-6.062977343750000000e+04
-6.062632421875000000e+04
-6.062692187500000000e+04
-6.064948046875000000e+04
-6.063463281250000000e+04
-6.061166796875000000e+04
-6.061312890625000000e+04
-6.061162109375000000e+04
-6.060426953125000000e+04
-6.060748828125000000e+04
-6.061298046875000000e+04
-6.060742187500000000e+04
-6.061070312500000000e+04
-6.061142968750000000e+04
-6.060917578125000000e+04
-6.060968750000000000e+04
-6.060867187500000000e+04
-6.061185546875000000e+04
-6.060826562500000000e+04
-6.060685937500000000e+04
-6.060534375000000000e+04
-6.060185546875000000e+04
-6.060793750000000000e+04
-6.065103125000000000e+04
-6.060548828125000000e+04
-6.061320312500000000e+04
-6.061319140625000000e+04
-6.061427734375000000e+04
-6.061571093750000000e+04
-6.060648828125000000e+04
-6.060943750000000000e+04
-6.061113281250000000e+04
-6.061292968750000000e+04
-6.061438281250000000e+04
-6.061808984375000000e+04
-6.061338281250000000e+04
-6.061144531250000000e+04
-6.060943359375000000e+04
-6.061095312500000000e+04
-6.061266796875000000e+04
-6.061051953125000000e+04
-6.061144531250000000e+04
-6.060783203125000000e+04
-6.061053906250000000e+04
-6.069468359375000000e+04
-6.066287890625000000e+04
-6.063185937500000000e+04
-6.063260546875000000e+04
-6.063278515625000000e+04
-6.062848437500000000e+04
-6.063542578125000000e+04
-6.062943750000000000e+04
-6.062565625000000000e+04
-6.062850390625000000e+04
-6.062672265625000000e+04
-6.062808203125000000e+04
-6.062950000000000000e+04
-6.062587500000000000e+04
-6.062679296875000000e+04
-6.062992187500000000e+04
-6.063184375000000000e+04
-6.062509765625000000e+04
-6.062717578125000000e+04
-6.062589453125000000e+04
-6.062708203125000000e+04
-6.062764843750000000e+04
-6.062332421875000000e+04
-6.069468359375000000e+04
-6.065616406250000000e+04
-6.064066796875000000e+04
-6.063382812500000000e+04
-6.063159765625000000e+04
-6.063551562500000000e+04
-6.063471484375000000e+04
-6.063591015625000000e+04
-6.063306640625000000e+04
-6.063040234375000000e+04
-6.062990234375000000e+04
-6.063639062500000000e+04
-6.063364843750000000e+04
-6.063613671875000000e+04
-6.063525390625000000e+04
-6.063271484375000000e+04
-6.063272656250000000e+04
-6.063398437500000000e+04
-6.063727734375000000e+04
-6.063866406250000000e+04
-6.063368750000000000e+04
-6.062972265625000000e+04
-6.061867968750000000e+04
-6.062685156250000000e+04
-6.062655468750000000e+04
-6.061838671875000000e+04
-6.061912109375000000e+04
-6.061461328125000000e+04
-6.061989843750000000e+04
-6.061523437500000000e+04
-6.061542187500000000e+04
-6.061400390625000000e+04
-6.062342578125000000e+04
-6.062523828125000000e+04
-6.061958984375000000e+04
-6.062585156250000000e+04
-6.062122265625000000e+04
-6.061123828125000000e+04
-6.061500390625000000e+04
-6.061620312500000000e+04
-6.061876562500000000e+04
-6.061540625000000000e+04
-6.061873828125000000e+04
-6.061517968750000000e+04
-6.061182031250000000e+04
-6.069468359375000000e+04
-6.065780078125000000e+04
-6.065892187500000000e+04
-6.064960937500000000e+04
-6.064248046875000000e+04
-6.063166015625000000e+04
-6.062948828125000000e+04
-6.062509375000000000e+04
-6.062667968750000000e+04
-6.062154296875000000e+04
-6.062141406250000000e+04
-6.061378125000000000e+04
-6.062214062500000000e+04
-6.062655859375000000e+04
-6.062120312500000000e+04
-6.062477343750000000e+04
-6.062495312500000000e+04
-6.061938671875000000e+04
-6.062234765625000000e+04
-6.062487500000000000e+04
-6.062679687500000000e+04
-6.062717968750000000e+04
-6.062074609375000000e+04
-6.062109375000000000e+04
-6.069468359375000000e+04
-6.065474218750000000e+04
-6.063473046875000000e+04
-6.060871093750000000e+04
-6.060998828125000000e+04
-6.060869921875000000e+04
-6.060231250000000000e+04
-6.060303125000000000e+04
-6.060223437500000000e+04
-6.060588281250000000e+04
-6.060422656250000000e+04
-6.060334765625000000e+04
-6.059750000000000000e+04
-6.059989453125000000e+04
-6.059547656250000000e+04
-6.059203125000000000e+04
-6.059942578125000000e+04
-6.064325781250000000e+04
-6.061561718750000000e+04
-6.061482421875000000e+04
-6.060825390625000000e+04
-6.061638671875000000e+04
-6.061509765625000000e+04
-6.061529296875000000e+04
-6.061111718750000000e+04
-6.061106640625000000e+04
-6.061052343750000000e+04
-6.060882812500000000e+04
-6.060829296875000000e+04
-6.061332812500000000e+04
-6.061486718750000000e+04
-6.060876953125000000e+04
-6.060614062500000000e+04
-6.060671875000000000e+04
-6.059629296875000000e+04
-6.060079687500000000e+04
-6.065899218750000000e+04
-6.064106640625000000e+04
-6.063364843750000000e+04
-6.063619531250000000e+04
-6.063932031250000000e+04
-6.063617187500000000e+04
-6.063364453125000000e+04
-6.063687500000000000e+04
-6.063406250000000000e+04
-6.063131250000000000e+04
-6.063318359375000000e+04
-6.063389062500000000e+04
-6.062680468750000000e+04
-6.063036718750000000e+04
-6.063837500000000000e+04
-6.063383203125000000e+04
-6.063206250000000000e+04
-6.063011718750000000e+04
-6.062787500000000000e+04
-6.062999609375000000e+04
-6.062655078125000000e+04
-6.062768359375000000e+04
-6.063911328125000000e+04
-6.063542187500000000e+04
-6.063502343750000000e+04
-6.063757031250000000e+04
-6.063471484375000000e+04
-6.063259375000000000e+04
-6.063645703125000000e+04
-6.063701953125000000e+04
-6.062983593750000000e+04
-6.063160546875000000e+04
-6.063592187500000000e+04
-6.063362500000000000e+04
-6.063507031250000000e+04
-6.063867578125000000e+04
-6.063869921875000000e+04
-6.063517187500000000e+04
-6.063290625000000000e+04
-6.062847265625000000e+04
-6.063057421875000000e+04
-6.063135156250000000e+04
-6.069146875000000000e+04
-6.062049609375000000e+04
-6.062119921875000000e+04
-6.062199218750000000e+04
-6.062044531250000000e+04
-6.062271484375000000e+04
-6.061830468750000000e+04
-6.061806250000000000e+04
-6.061735937500000000e+04
-6.061902734375000000e+04
-6.061795312500000000e+04
-6.061869140625000000e+04
-6.061540625000000000e+04
-6.061777343750000000e+04
-6.062153125000000000e+04
-6.061892968750000000e+04
-6.061203906250000000e+04
-6.061632812500000000e+04
-6.061778515625000000e+04
-6.069146875000000000e+04
-6.065588671875000000e+04
-6.064732031250000000e+04
-6.063484375000000000e+04
-6.062515625000000000e+04
-6.062442578125000000e+04
-6.062552343750000000e+04
-6.062157031250000000e+04
-6.062833593750000000e+04
-6.062333203125000000e+04
-6.062546875000000000e+04
-6.062628125000000000e+04
-6.062232421875000000e+04
-6.061735546875000000e+04
-6.062587890625000000e+04
-6.061551562500000000e+04
-6.061439843750000000e+04
-6.061425000000000000e+04
-6.061913671875000000e+04
-6.065357031250000000e+04
-6.064957031250000000e+04
-6.061112109375000000e+04
-6.061373437500000000e+04
-6.061247656250000000e+04
-6.061205078125000000e+04
-6.061538671875000000e+04
-6.061382031250000000e+04
-6.060535937500000000e+04
-6.060885156250000000e+04
-6.060777734375000000e+04
-6.061008984375000000e+04
-6.060747656250000000e+04
-6.060308984375000000e+04
-6.060846484375000000e+04
-6.061175781250000000e+04
-6.061094140625000000e+04
-6.061257031250000000e+04
-6.065345312500000000e+04
-6.065075000000000000e+04
-6.064098828125000000e+04
-6.061028125000000000e+04
-6.061528906250000000e+04
-6.061336718750000000e+04
-6.060598437500000000e+04
-6.060675000000000000e+04
-6.060436718750000000e+04
-6.060731640625000000e+04
-6.061023437500000000e+04
-6.060953906250000000e+04
-6.060857421875000000e+04
-6.060999218750000000e+04
-6.061062109375000000e+04
-6.060678515625000000e+04
-6.060875390625000000e+04
-6.061107812500000000e+04
-6.060685156250000000e+04
-6.060703906250000000e+04
-6.060837890625000000e+04
-6.060775781250000000e+04
-6.060154687500000000e+04
-6.060882421875000000e+04
-6.060995703125000000e+04
-6.069343359375000000e+04
-6.066209375000000000e+04
-6.065957031250000000e+04
-6.063434765625000000e+04
-6.063317187500000000e+04
-6.063346875000000000e+04
-6.062967578125000000e+04
-6.063373046875000000e+04
-6.063454296875000000e+04
-6.063137500000000000e+04
-6.063083593750000000e+04
-6.063223046875000000e+04
-6.062973046875000000e+04
-6.063734375000000000e+04
-6.063341796875000000e+04
-6.062893359375000000e+04
-6.062844531250000000e+04
-6.062755078125000000e+04
-6.062696875000000000e+04
-6.062451171875000000e+04
-6.062512500000000000e+04
-6.063356640625000000e+04
-6.065122656250000000e+04
-6.063777343750000000e+04
-6.063971875000000000e+04
-6.063608984375000000e+04
-6.063078515625000000e+04
-6.063147265625000000e+04
-6.063339062500000000e+04
-6.063489843750000000e+04
-6.063482031250000000e+04
-6.063178125000000000e+04
-6.063236328125000000e+04
-6.063130078125000000e+04
-6.063485156250000000e+04
-6.063589062500000000e+04
-6.062806250000000000e+04
-6.063213281250000000e+04
-6.063456250000000000e+04
-6.062962500000000000e+04
-6.063402343750000000e+04
-6.063767968750000000e+04
-6.069343359375000000e+04
-6.064608593750000000e+04
-6.063249218750000000e+04
-6.062389843750000000e+04
-6.062063281250000000e+04
-6.062640625000000000e+04
-6.062294531250000000e+04
-6.062441015625000000e+04
-6.062009765625000000e+04
-6.061962500000000000e+04
-6.061654296875000000e+04
-6.061219531250000000e+04
-6.061570703125000000e+04
-6.061551953125000000e+04
-6.061842187500000000e+04
-6.061682421875000000e+04
-6.062154687500000000e+04
-6.062075390625000000e+04
-6.061774609375000000e+04
-6.061881250000000000e+04
-6.061565625000000000e+04
-6.061378906250000000e+04
-6.069343359375000000e+04
-6.065914453125000000e+04
-6.062928125000000000e+04
-6.061982421875000000e+04
-6.062550390625000000e+04
-6.061905859375000000e+04
-6.062207421875000000e+04
-6.062544140625000000e+04
-6.062002734375000000e+04
-6.062253906250000000e+04
-6.062339062500000000e+04
-6.062593359375000000e+04
-6.062265625000000000e+04
-6.062195703125000000e+04
-6.061783593750000000e+04
-6.061260937500000000e+04
-6.062332421875000000e+04
-6.062247656250000000e+04
-6.061776171875000000e+04
-6.061839453125000000e+04
-6.062040625000000000e+04
-6.062426562500000000e+04
-6.062419921875000000e+04
-6.062223046875000000e+04
-6.064968750000000000e+04
-6.061691406250000000e+04
-6.061275781250000000e+04
-6.061059765625000000e+04
-6.060637890625000000e+04
-6.061221484375000000e+04
-6.061120703125000000e+04
-6.060975781250000000e+04
-6.060457812500000000e+04
-6.061019140625000000e+04
-6.060344531250000000e+04
-6.061057812500000000e+04
-6.060513671875000000e+04
-6.060349218750000000e+04
-6.060241015625000000e+04
-6.060182812500000000e+04
-6.061158593750000000e+04
-6.061391796875000000e+04
-6.060600781250000000e+04
-6.059830859375000000e+04
-6.060236718750000000e+04
-6.060402343750000000e+04
-6.060251171875000000e+04
-6.060560156250000000e+04
-6.060067187500000000e+04
-6.060553906250000000e+04
-6.060553125000000000e+04
-6.060054687500000000e+04
-6.064326953125000000e+04
-6.062461328125000000e+04
-6.062057421875000000e+04
-6.061125781250000000e+04
-6.061170312500000000e+04
-6.061621875000000000e+04
-6.061406640625000000e+04
-6.061080078125000000e+04
-6.060990625000000000e+04
-6.060704687500000000e+04
-6.060694531250000000e+04
-6.060678515625000000e+04
-6.061308984375000000e+04
-6.060950000000000000e+04
-6.060532812500000000e+04
-6.060135937500000000e+04
-6.060099609375000000e+04
-6.060696484375000000e+04
-6.061321875000000000e+04
-6.061202734375000000e+04
-6.060651953125000000e+04
-6.061062109375000000e+04
-6.060774218750000000e+04
-6.061261718750000000e+04
-6.065868750000000000e+04
-6.065155859375000000e+04
-6.064800000000000000e+04
-6.063763671875000000e+04
-6.062786718750000000e+04
-6.062783203125000000e+04
-6.062885546875000000e+04
-6.062989062500000000e+04
-6.063386718750000000e+04
-6.062866406250000000e+04
-6.062874609375000000e+04
-6.062980859375000000e+04
-6.062528906250000000e+04
-6.062733593750000000e+04
-6.062750000000000000e+04
-6.062238281250000000e+04
-6.063062500000000000e+04
-6.062707031250000000e+04
-6.063363671875000000e+04
-6.062501953125000000e+04
-6.062798046875000000e+04
-6.063013671875000000e+04
-6.063134375000000000e+04
-6.062674218750000000e+04
-6.062549218750000000e+04
-6.062631250000000000e+04
-6.062758984375000000e+04
-6.062561328125000000e+04
-6.063002343750000000e+04
-6.069248437500000000e+04
-6.065250390625000000e+04
-6.064503906250000000e+04
-6.064290234375000000e+04
-6.063280859375000000e+04
-6.063292968750000000e+04
-6.063508593750000000e+04
-6.063515625000000000e+04
-6.063470312500000000e+04
-6.063544531250000000e+04
-6.063166015625000000e+04
-6.063528125000000000e+04
-6.063550781250000000e+04
-6.063410937500000000e+04
-6.063477343750000000e+04
-6.063251953125000000e+04
-6.063320312500000000e+04
-6.063291796875000000e+04
-6.063500390625000000e+04
-6.063435937500000000e+04
-6.063829296875000000e+04
-6.063531250000000000e+04
-6.062817968750000000e+04
-6.062959375000000000e+04
-6.063505859375000000e+04
-6.063284765625000000e+04
-6.069248437500000000e+04
-6.065003515625000000e+04
-6.062209375000000000e+04
-6.061840234375000000e+04
-6.062137109375000000e+04
-6.062107031250000000e+04
-6.061803906250000000e+04
-6.062560937500000000e+04
-6.062317578125000000e+04
-6.061389453125000000e+04
-6.060828515625000000e+04
-6.061844531250000000e+04
-6.062387109375000000e+04
-6.062017578125000000e+04
-6.061744140625000000e+04
-6.061976953125000000e+04
-6.061887109375000000e+04
-6.061836718750000000e+04
-6.061419531250000000e+04
-6.061502734375000000e+04
-6.061810546875000000e+04
-6.061632031250000000e+04
-6.061826562500000000e+04
-6.065429687500000000e+04
-6.064542578125000000e+04
-6.063192187500000000e+04
-6.062963281250000000e+04
-6.062143750000000000e+04
-6.062334375000000000e+04
-6.062552343750000000e+04
-6.062467187500000000e+04
-6.061879687500000000e+04
-6.061900390625000000e+04
-6.062013281250000000e+04
-6.062294921875000000e+04
-6.062278515625000000e+04
-6.062296484375000000e+04
-6.062493359375000000e+04
-6.062950781250000000e+04
-6.062248046875000000e+04
-6.062579687500000000e+04
-6.062509765625000000e+04
-6.062194140625000000e+04
-6.062331250000000000e+04
-6.062248437500000000e+04
-6.062385546875000000e+04
-6.062314062500000000e+04
-6.069248437500000000e+04
-6.065441015625000000e+04
-6.063434375000000000e+04
-6.061419531250000000e+04
-6.061045312500000000e+04
-6.061184375000000000e+04
-6.061147656250000000e+04
-6.060702734375000000e+04
-6.060663671875000000e+04
-6.060536328125000000e+04
-6.060473828125000000e+04
-6.060480859375000000e+04
-6.060827343750000000e+04
-6.060763671875000000e+04
-6.061173828125000000e+04
-6.060358593750000000e+04
-6.061359765625000000e+04
-6.060631640625000000e+04
-6.060920703125000000e+04
-6.061037500000000000e+04
-6.060629296875000000e+04
-6.060426953125000000e+04
-6.065430078125000000e+04
-6.063044921875000000e+04
-6.061733203125000000e+04
-6.061321875000000000e+04
-6.060891796875000000e+04
-6.060633593750000000e+04
-6.060859375000000000e+04
-6.060868750000000000e+04
-6.060460156250000000e+04
-6.061306640625000000e+04
-6.061137500000000000e+04
-6.060869531250000000e+04
-6.061185546875000000e+04
-6.061153906250000000e+04
-6.060509765625000000e+04
-6.060687109375000000e+04
-6.061004687500000000e+04
-6.060947656250000000e+04
-6.060743750000000000e+04
-6.066040234375000000e+04
-6.064077734375000000e+04
-6.063294140625000000e+04
-6.063325000000000000e+04
-6.063292187500000000e+04
-6.063804296875000000e+04
-6.063811718750000000e+04
-6.063568359375000000e+04
-6.063137500000000000e+04
-6.062994140625000000e+04
-6.062958593750000000e+04
-6.062705859375000000e+04
-6.063104687500000000e+04
-6.063123828125000000e+04
-6.063319140625000000e+04
-6.063435546875000000e+04
-6.062944140625000000e+04
-6.063075781250000000e+04
-6.063361718750000000e+04
-6.062849218750000000e+04
-6.065198046875000000e+04
-6.063412890625000000e+04
-6.063960937500000000e+04
-6.063652343750000000e+04
-6.063248046875000000e+04
-6.063218750000000000e+04
-6.063157421875000000e+04
-6.063902734375000000e+04
-6.063623828125000000e+04
-6.063164062500000000e+04
-6.063712109375000000e+04
-6.063500000000000000e+04
-6.063304687500000000e+04
-6.063107812500000000e+04
-6.063089453125000000e+04
-6.062928515625000000e+04
-6.062864453125000000e+04
-6.063022656250000000e+04
-6.063254296875000000e+04
-6.063477343750000000e+04
-6.063424218750000000e+04
-6.063364453125000000e+04
-6.062955859375000000e+04
-6.063293750000000000e+04
-6.063451953125000000e+04
-6.063305859375000000e+04
-6.069444921875000000e+04
-6.065877734375000000e+04
-6.061937890625000000e+04
-6.062352343750000000e+04
-6.062396875000000000e+04
-6.061832421875000000e+04
-6.061868750000000000e+04
-6.061373437500000000e+04
-6.061962500000000000e+04
-6.062263671875000000e+04
-6.062383203125000000e+04
-6.061896484375000000e+04
-6.061975000000000000e+04
-6.061926562500000000e+04
-6.061293750000000000e+04
-6.061892578125000000e+04
-6.061885546875000000e+04
-6.062268750000000000e+04
-6.065629296875000000e+04
-6.063046484375000000e+04
-6.062966406250000000e+04
-6.062365625000000000e+04
-6.062421484375000000e+04
-6.062552734375000000e+04