-4.907387161254882812e+01 9.845211982727050781e+00 8.819864273071289062e+00 9.845211982727050781e+00 -5.416302871704101562e+01 2.274974060058593750e+01 8.819864273071289062e+00 2.274974060058593750e+01 -2.492590141296386719e+01
1.915480613708496094e+00 -4.144934177398681641e+00 -2.349205970764160156e+01 -4.144934177398681641e+00 -1.478150558471679688e+01 -3.183130979537963867e+00 -2.349205970764160156e+01 -3.183130979537963867e+00 2.271830320358276367e+00
-5.196755218505859375e+01 -7.543330669403076172e+00 -1.338961219787597656e+01 -7.543330669403076172e+00 -1.467260074615478516e+01 1.352544021606445312e+01 -1.338961219787597656e+01 1.352544021606445312e+01 -3.481752777099609375e+01
-6.234484195709228516e+00 -9.052703976631164551e-01 -2.403064537048339844e+01 -9.052703976631164551e-01 -1.532526016235351562e+01 -1.411659431457519531e+01 -2.403064537048339844e+01 -1.411659431457519531e+01 -8.908154487609863281e+00
-1.449766254425048828e+01 -1.756420898437500000e+01 -8.508812904357910156e+00 -1.756420898437500000e+01 -1.716497421264648438e+01 -4.401040077209472656e+00 -8.508812904357910156e+00 -4.401040077209472656e+00 -5.361798858642578125e+01
-3.137955284118652344e+01 -7.942080020904541016e+00 -1.714977979660034180e+00 -7.942080020904541016e+00 -1.598768615722656250e+01 -1.454140782356262207e+00 -1.714977979660034180e+00 -1.454140782356262207e+00 -3.374734878540039062e+01
-4.760558700561523438e+01 1.461465644836425781e+01 -4.470159530639648438e+00 1.461465644836425781e+01 -2.627219581604003906e+01 1.330377197265625000e+01 -4.470159530639648438e+00 1.330377197265625000e+01 5.120542049407958984e+00
-2.838749408721923828e+00 -5.764913558959960938e+00 -6.843401432037353516e+00 -5.764913558959960938e+00 -4.298393726348876953e+00 2.597633123397827148e+00 -6.843401432037353516e+00 2.597633123397827148e+00 -2.125593566894531250e+01
-3.423610305786132812e+01 2.023953676223754883e+00 -1.076137256622314453e+01 2.023953676223754883e+00 -1.939893531799316406e+01 1.827322959899902344e+01 -1.076137256622314453e+01 1.827322959899902344e+01 -3.357996749877929688e+01
-1.624558830261230469e+01 -6.010935306549072266e+00 -3.565134704113006592e-01 -6.010935306549072266e+00 -4.068174362182617188e+01 5.984606742858886719e-01 -3.565134704113006592e-01 5.984606742858886719e-01 3.786217927932739258e+00
1.330540084838867188e+01 -9.537501335144042969e+00 -5.306706905364990234e+00 -9.537501335144042969e+00 1.497078800201416016e+01 -7.719007015228271484e+00 -5.306706905364990234e+00 -7.719007015228271484e+00 -2.226778411865234375e+01
-9.550315856933593750e+00 -2.712427616119384766e+00 -1.348766136169433594e+01 -2.712427616119384766e+00 6.774490356445312500e+00 1.298001480102539062e+01 -1.348766136169433594e+01 1.298001480102539062e+01 3.255898952484130859e+00
-1.948698639869689941e+00 1.630182266235351562e+01 -1.143011856079101562e+01 1.630182266235351562e+01 -2.212258815765380859e+00 1.352222347259521484e+01 -1.143011856079101562e+01 1.352222347259521484e+01 -1.511965179443359375e+01
-3.531459045410156250e+01 -1.055529785156250000e+01 -2.057261657714843750e+01 -1.055529785156250000e+01 -8.210778981447219849e-02 1.319114112854003906e+01 -2.057261657714843750e+01 1.319114112854003906e+01 -5.614485931396484375e+01
-4.340415954589843750e+00 1.629832649230957031e+01 7.186770915985107422e+00 1.629832649230957031e+01 1.231518554687500000e+01 -9.614851951599121094e+00 7.186770915985107422e+00 -9.614851951599121094e+00 1.384979844093322754e+00
-2.577175712585449219e+01 8.997161865234375000e+00 2.985688745975494385e-01 8.997161865234375000e+00 -6.918570995330810547e+00 1.799932098388671875e+01 2.985688745975494385e-01 1.799932098388671875e+01 -4.125349998474121094e+00
-2.136334228515625000e+01 -4.406543731689453125e+00 -2.576319694519042969e+01 -4.406543731689453125e+00 -1.430306243896484375e+01 4.298958778381347656e+00 -2.576319694519042969e+01 4.298958778381347656e+00 2.483323478698730469e+01
-6.010235786437988281e+00 -1.013403797149658203e+01 -7.052644729614257812e+00 -1.013403797149658203e+01 -3.047364997863769531e+01 1.398746609687805176e+00 -7.052644729614257812e+00 1.398746609687805176e+00 -3.689623260498046875e+01
-2.715558624267578125e+01 5.343321800231933594e+00 3.343240022659301758e-01 5.343321800231933594e+00 -1.330987644195556641e+01 -1.151138305664062500e+01 3.343240022659301758e-01 -1.151138305664062500e+01 1.418073558807373047e+01
-3.265822982788085938e+01 -1.752852821350097656e+01 -3.346192836761474609e+00 -1.752852821350097656e+01 1.348024845123291016e+00 1.945344924926757812e+01 -3.346192836761474609e+00 1.945344924926757812e+01 -4.469969558715820312e+01
-5.629554748535156250e+01 -8.266200065612792969e+00 3.936979174613952637e-01 -8.266200065612792969e+00 -3.704182815551757812e+01 1.906284570693969727e+00 3.936979174613952637e-01 1.906284570693969727e+00 -4.312588119506835938e+01
-1.993740081787109375e+01 -1.793205618858337402e+00 -2.335555458068847656e+01 -1.793205618858337402e+00 -2.417822456359863281e+01 -3.656545877456665039e+00 -2.335555458068847656e+01 -3.656545877456665039e+00 -1.533568572998046875e+01
-1.721955871582031250e+01 -3.793422222137451172e+00 -1.507015705108642578e+01 -3.793422222137451172e+00 -8.514765739440917969e+00 6.574266552925109863e-01 -1.507015705108642578e+01 6.574266552925109863e-01 -3.206948471069335938e+01
-2.775973320007324219e+01 -1.010470485687255859e+01 4.543605744838714600e-01 -1.010470485687255859e+01 2.093233489990234375e+01 3.842410326004028320e+00 4.543605744838714600e-01 3.842410326004028320e+00 8.273656845092773438e+00
-2.090472221374511719e+01 1.247050285339355469e+01 -1.133072948455810547e+01 1.247050285339355469e+01 -1.032402038574218750e+01 -1.527245998382568359e+00 -1.133072948455810547e+01 -1.527245998382568359e+00 -6.127896308898925781e+00
-2.485905838012695312e+01 1.862841606140136719e+01 -7.153746604919433594e+00 1.862841606140136719e+01 -3.110755538940429688e+01 -1.027570533752441406e+01 -7.153746604919433594e+00 -1.027570533752441406e+01 -2.250180625915527344e+01
-1.645255851745605469e+01 -3.016704797744750977e+00 1.837105369567871094e+01 -3.016704797744750977e+00 8.643797874450683594e+00 -1.424279594421386719e+01 1.837105369567871094e+01 -1.424279594421386719e+01 3.693529844284057617e+00
-2.407264900207519531e+01 -1.154816150665283203e+01 -1.297610473632812500e+01 -1.154816150665283203e+01 -1.354658126831054688e+01 4.252638339996337891e+00 -1.297610473632812500e+01 4.252638339996337891e+00 -4.540887451171875000e+01
4.258370971679687500e+01 2.284014320373535156e+01 -1.095372676849365234e+00 2.284014320373535156e+01 4.796428680419921875e+01 -1.139915657043457031e+01 -1.095372676849365234e+00 -1.139915657043457031e+01 7.021033477783203125e+01
-2.627074241638183594e+01 -1.495703125000000000e+01 -1.099718284606933594e+01 -1.495703125000000000e+01 -5.072081089019775391e+00 1.206163787841796875e+01 -1.099718284606933594e+01 1.206163787841796875e+01 -3.246681594848632812e+01
-1.333558750152587891e+01 1.581967449188232422e+01 -5.099978923797607422e+00 1.581967449188232422e+01 2.551235198974609375e+01 2.237295150756835938e+01 -5.099978923797607422e+00 2.237295150756835938e+01 -8.568136692047119141e-01
6.283440113067626953e+00 -1.090266418457031250e+01 6.496988773345947266e+00 -1.090266418457031250e+01 1.100287342071533203e+01 -8.691071510314941406e+00 6.496988773345947266e+00 -8.691071510314941406e+00 2.470512580871582031e+01
-2.211391830444335938e+01 2.524420976638793945e+00 -8.922434806823730469e+00 2.524420976638793945e+00 -4.230471611022949219e+00 -1.505054354667663574e+00 -8.922434806823730469e+00 -1.505054354667663574e+00 5.721977233886718750e+00
3.077463722229003906e+01 -8.851832389831542969e+00 -1.884250044822692871e+00 -8.851832389831542969e+00 1.352184200286865234e+01 9.203454971313476562e+00 -1.884250044822692871e+00 9.203454971313476562e+00 -2.185338020324707031e+01
3.757659673690795898e+00 3.693924903869628906e+00 -1.723936462402343750e+01 3.693924903869628906e+00 -3.004332351684570312e+01 -5.884246349334716797e+00 -1.723936462402343750e+01 -5.884246349334716797e+00 -2.353868865966796875e+01
-2.245378112792968750e+01 6.595005989074707031e+00 -4.772393703460693359e+00 6.595005989074707031e+00 -1.792404937744140625e+01 1.238355636596679688e+00 -4.772393703460693359e+00 1.238355636596679688e+00 -4.332593917846679688e+00
-2.578103065490722656e+00 -4.271361827850341797e+00 1.503173255920410156e+01 -4.271361827850341797e+00 6.012743473052978516e+00 -2.158029824495315552e-01 1.503173255920410156e+01 -2.158029824495315552e-01 2.589465522766113281e+01
1.581799864768981934e+00 -3.363034963607788086e+00 7.521644592285156250e+00 -3.363034963607788086e+00 1.582439541816711426e+00 -9.735321044921875000e+00 7.521644592285156250e+00 -9.735321044921875000e+00 2.783559989929199219e+01
-3.134654235839843750e+01 -3.338834762573242188e+00 1.093661117553710938e+01 -3.338834762573242188e+00 -2.406142044067382812e+01 4.399987161159515381e-01 1.093661117553710938e+01 4.399987161159515381e-01 -2.197533226013183594e+01
7.431308746337890625e+00 6.970840454101562500e+00 -1.163482761383056641e+01 6.970840454101562500e+00 5.373162078857421875e+01 1.975473403930664062e+00 -1.163482761383056641e+01 1.975473403930664062e+00 4.114172363281250000e+01
-2.014983940124511719e+01 -2.353218078613281250e+00 3.514889907836914062e+01 -2.353218078613281250e+00 8.278674125671386719e+00 3.093951702117919922e+00 3.514889907836914062e+01 3.093951702117919922e+00 3.302732849121093750e+01
3.546254873275756836e+00 -5.429547309875488281e+00 -1.062215328216552734e+01 -5.429547309875488281e+00 3.661891937255859375e+01 2.042139291763305664e+00 -1.062215328216552734e+01 2.042139291763305664e+00 2.075886535644531250e+01
2.664974975585937500e+01 2.344671440124511719e+01 8.991669654846191406e+00 2.344671440124511719e+01 3.385877609252929688e+00 -1.742225837707519531e+01 8.991669654846191406e+00 -1.742225837707519531e+01 -2.026324653625488281e+01
-1.151375198364257812e+01 1.116004276275634766e+01 2.458024406433105469e+01 1.116004276275634766e+01 -6.814213991165161133e-01 -7.671158313751220703e+00 2.458024406433105469e+01 -7.671158313751220703e+00 -7.748751163482666016e+00
1.312859344482421875e+01 -1.219691276550292969e+01 -1.627145004272460938e+01 -1.219691276550292969e+01 4.060412883758544922e+00 -7.803353786468505859e+00 -1.627145004272460938e+01 -7.803353786468505859e+00 -2.927408409118652344e+01
-2.530730056762695312e+01 1.203767681121826172e+01 -1.906728386878967285e+00 1.203767681121826172e+01 -1.850374984741210938e+01 1.208678436279296875e+01 -1.906728386878967285e+00 1.208678436279296875e+01 -9.880396842956542969e+00
1.655518722534179688e+01 -4.922907352447509766e+00 2.080502271652221680e+00 -4.922907352447509766e+00 1.654991531372070312e+01 -7.959729671478271484e+00 2.080502271652221680e+00 -7.959729671478271484e+00 1.098262596130371094e+01
-3.226236724853515625e+01 -2.516184151172637939e-01 2.463794231414794922e+00 -2.516184151172637939e-01 -1.178431129455566406e+01 -7.110918521881103516e+00 2.463794231414794922e+00 -7.110918521881103516e+00 -2.759486579895019531e+01
-3.929378128051757812e+01 1.836040496826171875e+01 6.482682704925537109e+00 1.836040496826171875e+01 -2.657756423950195312e+01 1.228187370300292969e+01 6.482682704925537109e+00 1.228187370300292969e+01 -3.443505859375000000e+01
2.230068683624267578e+00 -1.740566444396972656e+01 -5.801932334899902344e+00 -1.740566444396972656e+01 -2.422800540924072266e+00 -1.128101062774658203e+01 -5.801932334899902344e+00 -1.128101062774658203e+01 -1.110028076171875000e+01
1.186398792266845703e+01 -2.245316028594970703e+00 -2.366071701049804688e+01 -2.245316028594970703e+00 1.933644676208496094e+01 7.514908790588378906e+00 -2.366071701049804688e+01 7.514908790588378906e+00 3.165477180480957031e+01
4.282320976257324219e+00 -8.588953614234924316e-01 6.183460235595703125e+00 -8.588953614234924316e-01 3.664009857177734375e+01 9.088859558105468750e-01 6.183460235595703125e+00 9.088859558105468750e-01 1.401769733428955078e+01
-2.828785324096679688e+01 -1.202657985687255859e+01 1.130518722534179688e+01 -1.202657985687255859e+01 -8.237112998962402344e+00 1.210165977478027344e+01 1.130518722534179688e+01 1.210165977478027344e+01 -2.289976310729980469e+01
6.532365417480468750e+01 1.758470153808593750e+01 1.558926010131835938e+01 1.758470153808593750e+01 6.030271148681640625e+01 2.250943756103515625e+01 1.558926010131835938e+01 2.250943756103515625e+01 9.914144134521484375e+01
-5.968663024902343750e+01 9.853725433349609375e+00 9.992155432701110840e-01 9.853725433349609375e+00 -3.537350082397460938e+01 8.961751937866210938e+00 9.992155432701110840e-01 8.961751937866210938e+00 -6.155816268920898438e+01
2.479153442382812500e+01 -7.522546768188476562e+00 -1.367417216300964355e+00 -7.522546768188476562e+00 -8.491168022155761719e+00 1.696171188354492188e+01 -1.367417216300964355e+00 1.696171188354492188e+01 4.290785312652587891e+00
-3.173685455322265625e+01 1.530639743804931641e+01 1.032313251495361328e+01 1.530639743804931641e+01 1.097378540039062500e+01 -1.189314365386962891e+01 1.032313251495361328e+01 -1.189314365386962891e+01 5.437471866607666016e+00
-2.459773254394531250e+01 1.533768081665039062e+01 -7.757778167724609375e+00 1.533768081665039062e+01 -3.875240325927734375e+01 8.212114572525024414e-01 -7.757778167724609375e+00 8.212114572525024414e-01 -6.391307449340820312e+01
-2.726895713806152344e+01 1.584500312805175781e+01 -1.389840245246887207e+00 1.584500312805175781e+01 -5.506633758544921875e+00 -1.250960111618041992e+00 -1.389840245246887207e+00 -1.250960111618041992e+00 -2.320166587829589844e+01
-1.409665393829345703e+01 1.885397338867187500e+01 -3.132816076278686523e+00 1.885397338867187500e+01 -1.596451473236083984e+01 1.588185977935791016e+01 -3.132816076278686523e+00 1.588185977935791016e+01 -5.565938568115234375e+01
-4.239271545410156250e+01 -9.230978012084960938e+00 -9.302103042602539062e+00 -9.230978012084960938e+00 -4.296871566772460938e+01 7.474776744842529297e+00 -9.302103042602539062e+00 7.474776744842529297e+00 -1.857466888427734375e+01
-4.317877960205078125e+01 8.578725814819335938e+00 1.734404945373535156e+01 8.578725814819335938e+00 -4.694722366333007812e+01 1.155823516845703125e+01 1.734404945373535156e+01 1.155823516845703125e+01 -1.025786972045898438e+01
-4.595261764526367188e+01 1.683393669128417969e+01 3.401956558227539062e-01 1.683393669128417969e+01 -1.715637588500976562e+01 -2.977672100067138672e+00 3.401956558227539062e-01 -2.977672100067138672e+00 -5.419861221313476562e+01
-3.445525360107421875e+01 1.779035949707031250e+01 2.923498392105102539e+00 1.779035949707031250e+01 7.558697223663330078e+00 1.537282848358154297e+01 2.923498392105102539e+00 1.537282848358154297e+01 -3.677771377563476562e+01
-3.355152130126953125e+01 -1.524292182922363281e+01 5.232186794281005859e+00 -1.524292182922363281e+01 -1.235492610931396484e+01 6.545739173889160156e-01 5.232186794281005859e+00 6.545739173889160156e-01 -2.227652168273925781e+01
-4.981902694702148438e+01 -2.936731815338134766e+00 -1.365280246734619141e+01 -2.936731815338134766e+00 -4.008799743652343750e+01 5.476084709167480469e+00 -1.365280246734619141e+01 5.476084709167480469e+00 -4.388777542114257812e+01
-2.958542633056640625e+01 3.020628392696380615e-01 -4.666472434997558594e+00 3.020628392696380615e-01 1.189687371253967285e+00 -2.770036506652832031e+01 -4.666472434997558594e+00 -2.770036506652832031e+01 -2.142484283447265625e+01
-5.874843978881835938e+01 -7.105310440063476562e+00 -4.458482742309570312e+00 -7.105310440063476562e+00 -3.580781173706054688e+01 -1.521131610870361328e+01 -4.458482742309570312e+00 -1.521131610870361328e+01 -3.082098007202148438e+01
-1.452614217996597290e-01 2.797557640075683594e+01 1.015184497833251953e+01 2.797557640075683594e+01 5.396918773651123047e+00 4.111258029937744141e+00 1.015184497833251953e+01 4.111258029937744141e+00 -3.288015365600585938e+01
1.971907806396484375e+01 -5.944409847259521484e+00 1.544395804405212402e+00 -5.944409847259521484e+00 4.488325119018554688e+00 -1.018213176727294922e+01 1.544395804405212402e+00 -1.018213176727294922e+01 7.112297058105468750e+00
-2.876605415344238281e+01 1.138379001617431641e+01 4.380714416503906250e+00 1.138379001617431641e+01 -2.441231346130371094e+01 1.157601833343505859e+01 4.380714416503906250e+00 1.157601833343505859e+01 -1.889190673828125000e+01
-1.197991132736206055e+00 -2.408212280273437500e+01 8.643603324890136719e+00 -2.408212280273437500e+01 -2.267527389526367188e+01 -2.173749351501464844e+01 8.643603324890136719e+00 -2.173749351501464844e+01 -3.492982864379882812e+00
3.278192281723022461e+00 -7.509653091430664062e+00 -2.963021397590637207e-01 -7.509653091430664062e+00 -1.163068866729736328e+01 -8.932749748229980469e+00 -2.963021397590637207e-01 -8.932749748229980469e+00 -1.652214241027832031e+01
-5.263638305664062500e+01 1.055369600653648376e-01 -2.452492523193359375e+01 1.055369600653648376e-01 -3.558082199096679688e+01 -1.135422801971435547e+01 -2.452492523193359375e+01 -1.135422801971435547e+01 -2.388928031921386719e+01
-1.008262634277343750e+01 1.221619987487792969e+01 -1.035916233062744141e+01 1.221619987487792969e+01 -3.770942687988281250e+00 7.180625915527343750e+00 -1.035916233062744141e+01 7.180625915527343750e+00 1.875113868713378906e+01
-2.911323165893554688e+01 -1.747505378723144531e+01 -2.195771455764770508e+00 -1.747505378723144531e+01 -2.508116149902343750e+01 -8.120006322860717773e-01 -2.195771455764770508e+00 -8.120006322860717773e-01 -4.394612884521484375e+01
3.348170471191406250e+01 -1.015680122375488281e+01 -2.395686626434326172e+00 -1.015680122375488281e+01 -1.738802337646484375e+01 2.481315612792968750e+01 -2.395686626434326172e+00 2.481315612792968750e+01 -1.581752014160156250e+01
-2.837709617614746094e+01 -4.579862117767333984e+00 2.920859813690185547e+00 -4.579862117767333984e+00 3.320630073547363281e+00 -3.778421163558959961e+00 2.920859813690185547e+00 -3.778421163558959961e+00 -5.998153090476989746e-01
-6.666176319122314453e-01 1.530773162841796875e+00 7.814159870147705078e+00 1.530773162841796875e+00 3.218409538269042969e+00 -4.915980815887451172e+00 7.814159870147705078e+00 -4.915980815887451172e+00 1.199100390076637268e-01
-3.139995956420898438e+01 -1.860253524780273438e+01 -4.192931175231933594e+00 -1.860253524780273438e+01 9.249575614929199219e+00 1.384479713439941406e+01 -4.192931175231933594e+00 1.384479713439941406e+01 -2.412015342712402344e+01
1.850373268127441406e+01 1.755230331420898438e+01 4.003332138061523438e+00 1.755230331420898438e+01 -1.552079677581787109e+01 -2.029975128173828125e+01 4.003332138061523438e+00 -2.029975128173828125e+01 -2.327843856811523438e+01
1.383659124374389648e+00 -5.379900932312011719e+00 2.246680450439453125e+01 -5.379900932312011719e+00 5.267413854598999023e-01 -7.617685317993164062e+00 2.246680450439453125e+01 -7.617685317993164062e+00 -2.212784767150878906e+01
-3.200316619873046875e+01 1.321615600585937500e+01 7.041296958923339844e-01 1.321615600585937500e+01 -1.137890458106994629e+00 6.618694305419921875e+00 7.041296958923339844e-01 6.618694305419921875e+00 1.714754486083984375e+01
-2.581340026855468750e+01 -1.771658658981323242e+00 -2.820716619491577148e+00 -1.771658658981323242e+00 4.353623390197753906e+00 -4.806526660919189453e+00 -2.820716619491577148e+00 -4.806526660919189453e+00 4.191121101379394531e+00
-9.579167366027832031e+00 3.604876756668090820e+00 1.326574230194091797e+01 3.604876756668090820e+00 -2.286223220825195312e+01 -2.868975162506103516e+00 1.326574230194091797e+01 -2.868975162506103516e+00 -8.565106391906738281e+00
8.186010360717773438e+00 -1.812450599670410156e+01 -2.908315277099609375e+01 -1.812450599670410156e+01 2.509706878662109375e+01 -3.911279439926147461e+00 -2.908315277099609375e+01 -3.911279439926147461e+00 2.804521560668945312e+01
1.186868762969970703e+01 1.753910064697265625e+01 -1.603208923339843750e+01 1.753910064697265625e+01 -2.958405685424804688e+01 -1.742475777864456177e-01 -1.603208923339843750e+01 -1.742475777864456177e-01 -7.905467033386230469e+00
1.028905773162841797e+01 2.067681312561035156e+01 7.288045883178710938e+00 2.067681312561035156e+01 -3.446007156372070312e+01 -5.836606502532958984e+00 7.288045883178710938e+00 -5.836606502532958984e+00 1.125632882118225098e+00
1.494977760314941406e+01 -3.271878957748413086e+00 1.158860206604003906e+01 -3.271878957748413086e+00 -3.495101165771484375e+01 -2.374437570571899414e+00 1.158860206604003906e+01 -2.374437570571899414e+00 -3.199291038513183594e+01
-2.810905933380126953e+00 -9.223806381225585938e+00 -7.521527767181396484e+00 -9.223806381225585938e+00 -3.579335784912109375e+01 -4.861395835876464844e+00 -7.521527767181396484e+00 -4.861395835876464844e+00 1.124619674682617188e+01
-2.554850387573242188e+01 4.685451030731201172e+00 9.123596191406250000e+00 4.685451030731201172e+00 -2.609640121459960938e+01 -5.274633407592773438e+00 9.123596191406250000e+00 -5.274633407592773438e+00 -1.550897598266601562e+01
2.565667724609375000e+01 2.753512382507324219e+00 -3.292736053466796875e+01 2.753512382507324219e+00 -3.124219894409179688e+00 -1.076390075683593750e+01 -3.292736053466796875e+01 -1.076390075683593750e+01 8.791916847229003906e+00
-1.891364097595214844e+01 -1.525894880294799805e+00 3.227256011962890625e+01 -1.525894880294799805e+00 5.751786708831787109e+00 2.086441802978515625e+01 3.227256011962890625e+01 2.086441802978515625e+01 1.478956317901611328e+01
-1.187269401550292969e+01 9.155177116394042969e+00 -9.605005264282226562e+00 9.155177116394042969e+00 6.810210704803466797e+00 -2.137489795684814453e+00 -9.605005264282226562e+00 -2.137489795684814453e+00 -3.568338012695312500e+01
-4.360238552093505859e+00 -1.048931789398193359e+01 7.781330585479736328e+00 -1.048931789398193359e+01 -2.032238769531250000e+01 -3.392003297805786133e+00 7.781330585479736328e+00 -3.392003297805786133e+00 -2.053403282165527344e+01
-1.899827957153320312e+01 -2.006711721420288086e+00 1.213917827606201172e+01 -2.006711721420288086e+00 -4.396231079101562500e+01 4.913388252258300781e+00 1.213917827606201172e+01 4.913388252258300781e+00 1.707301497459411621e+00
-1.084730911254882812e+01 -1.183388519287109375e+01 1.657778143882751465e+00 -1.183388519287109375e+01 -4.246028900146484375e+00 2.864694118499755859e+00 1.657778143882751465e+00 2.864694118499755859e+00 -3.190321350097656250e+01
9.154717922210693359e-01 7.974375724792480469e+00 2.299490451812744141e+00 7.974375724792480469e+00 -3.475276565551757812e+01 -3.438057422637939453e+00 2.299490451812744141e+00 -3.438057422637939453e+00 1.024985074996948242e+00
8.134614944458007812e+00 1.800021976232528687e-01 -5.382328033447265625e+00 1.800021976232528687e-01 -2.553647041320800781e+01 -1.086586189270019531e+01 -5.382328033447265625e+00 -1.086586189270019531e+01 -1.061996364593505859e+01
-2.495512008666992188e+01 1.299796485900878906e+01 -2.217737770080566406e+01 1.299796485900878906e+01 -1.067146968841552734e+01 4.267297267913818359e+00 -2.217737770080566406e+01 4.267297267913818359e+00 -1.307623863220214844e+01
1.127012252807617188e+00 -1.666957092285156250e+01 -8.350206375122070312e+00 -1.666957092285156250e+01 3.546950149536132812e+01 1.577638626098632812e+01 -8.350206375122070312e+00 1.577638626098632812e+01 1.889804458618164062e+01
-6.522652626037597656e+00 -1.254013442993164062e+01 -1.663908195495605469e+01 -1.254013442993164062e+01 -1.492893505096435547e+01 -9.449264526367187500e+00 -1.663908195495605469e+01 -9.449264526367187500e+00 -1.871898841857910156e+01
-1.525471115112304688e+01 -1.443578910827636719e+01 -1.762359619140625000e+01 -1.443578910827636719e+01 2.386119127273559570e+00 1.139358615875244141e+01 -1.762359619140625000e+01 1.139358615875244141e+01 -1.766430091857910156e+01
-9.126695632934570312e+00 -2.395815849304199219e+01 -6.815252304077148438e-01 -2.395815849304199219e+01 -3.760648345947265625e+01 1.310540103912353516e+01 -6.815252304077148438e-01 1.310540103912353516e+01 -5.878839969635009766e+00
-9.082535743713378906e+00 1.761533546447753906e+01 -3.708046674728393555e+00 1.761533546447753906e+01 2.231667327880859375e+01 1.410975646972656250e+01 -3.708046674728393555e+00 1.410975646972656250e+01 3.134066772460937500e+01
-4.106658554077148438e+01 -2.566451549530029297e+00 -7.793558239936828613e-01 -2.566451549530029297e+00 -6.173361206054687500e+01 -1.625485420227050781e+01 -7.793558239936828613e-01 -1.625485420227050781e+01 -3.347612380981445312e+01
-4.710610961914062500e+01 1.141718864440917969e+01 -1.170909976959228516e+01 1.141718864440917969e+01 -1.182144069671630859e+01 1.891443729400634766e+00 -1.170909976959228516e+01 1.891443729400634766e+00 -1.048439979553222656e+01
-5.037194061279296875e+01 -4.722028255462646484e+00 1.363291263580322266e+01 -4.722028255462646484e+00 -1.511032104492187500e+01 -2.519275093078613281e+01 1.363291263580322266e+01 -2.519275093078613281e+01 -1.751611900329589844e+01
-3.833441925048828125e+01 4.116764068603515625e+00 2.206606864929199219e+00 4.116764068603515625e+00 -6.784577178955078125e+01 4.294167995452880859e+00 2.206606864929199219e+00 4.294167995452880859e+00 -4.178569412231445312e+01
-3.059807777404785156e+01 -3.433358669281005859e+00 2.394102859497070312e+01 -3.433358669281005859e+00 5.912094593048095703e+00 3.075280427932739258e+00 2.394102859497070312e+01 3.075280427932739258e+00 -5.493401336669921875e+01
-2.232519912719726562e+01 1.518619918823242188e+01 -1.571296453475952148e+00 1.518619918823242188e+01 -4.436288070678710938e+01 -3.648053407669067383e+00 -1.571296453475952148e+00 -3.648053407669067383e+00 -1.165917682647705078e+01
-3.910442352294921875e+01 5.106658458709716797e+00 1.761388206481933594e+01 5.106658458709716797e+00 -3.908234024047851562e+01 -8.320219039916992188e+00 1.761388206481933594e+01 -8.320219039916992188e+00 -7.716903686523437500e-01
3.598125457763671875e+00 -6.985700130462646484e+00 2.653901863098144531e+01 -6.985700130462646484e+00 -2.724953269958496094e+01 2.053131580352783203e+00 2.653901863098144531e+01 2.053131580352783203e+00 8.377862930297851562e+00
-1.581936454772949219e+01 -1.776269531250000000e+01 -8.282271027565002441e-01 -1.776269531250000000e+01 -2.137722206115722656e+01 -2.505975532531738281e+01 -8.282271027565002441e-01 -2.505975532531738281e+01 -4.414780044555664062e+01
-3.951766490936279297e+00 4.834412574768066406e+00 6.486489772796630859e+00 4.834412574768066406e+00 3.946044921875000000e+01 7.828866004943847656e+00 6.486489772796630859e+00 7.828866004943847656e+00 -6.760831356048583984e+00
-2.581129074096679688e+01 4.568909108638763428e-01 -1.452113151550292969e+01 4.568909108638763428e-01 -1.852294540405273438e+01 -6.777595996856689453e+00 -1.452113151550292969e+01 -6.777595996856689453e+00 -4.350949859619140625e+01
-2.730875968933105469e+01 -7.944066524505615234e+00 3.094255208969116211e+00 -7.944066524505615234e+00 -1.734439659118652344e+01 -7.820703983306884766e-01 3.094255208969116211e+00 -7.820703983306884766e-01 -2.980330657958984375e+01
-5.339764404296875000e+01 1.141778707504272461e+00 -6.275906085968017578e+00 1.141778707504272461e+00 -1.212144088745117188e+01 2.034664344787597656e+01 -6.275906085968017578e+00 2.034664344787597656e+01 -4.404367446899414062e+00
-3.607846069335937500e+01 -4.805975437164306641e+00 1.340438365936279297e+01 -4.805975437164306641e+00 -1.614157295227050781e+01 8.411849975585937500e+00 1.340438365936279297e+01 8.411849975585937500e+00 -9.532012939453125000e+00
-2.115810585021972656e+01 -1.284255981445312500e+01 -1.312133073806762695e+00 -1.284255981445312500e+01 -3.886977005004882812e+01 -1.359971427917480469e+01 -1.312133073806762695e+00 -1.359971427917480469e+01 -3.864228057861328125e+01
-1.612314414978027344e+01 -2.482633018493652344e+01 3.802622556686401367e+00 -2.482633018493652344e+01 -3.358720016479492188e+01 -1.119080448150634766e+01 3.802622556686401367e+00 -1.119080448150634766e+01 -3.704079055786132812e+01
6.532365417480468750e+01 1.758470153808593750e+01 1.558926010131835938e+01 1.758470153808593750e+01 6.030271148681640625e+01 2.250943756103515625e+01 1.558926010131835938e+01 2.250943756103515625e+01 9.914144134521484375e+01
-4.298988342285156250e+01 1.119840049743652344e+01 -7.651206016540527344e+00 1.119840049743652344e+01 -2.823789787292480469e+01 4.286543846130371094e+00 -7.651206016540527344e+00 4.286543846130371094e+00 -2.036371612548828125e+01
2.532162904739379883e+00 -8.492526054382324219e+00 -8.740319252014160156e+00 -8.492526054382324219e+00 8.366141319274902344e+00 -2.250912904739379883e+00 -8.740319252014160156e+00 -2.250912904739379883e+00 1.379204463958740234e+01
-2.591860961914062500e+01 1.697307968139648438e+01 -1.221862506866455078e+01 1.697307968139648438e+01 -1.035650920867919922e+01 -1.641747474670410156e+01 -1.221862506866455078e+01 -1.641747474670410156e+01 -5.380955886840820312e+01
-1.690931320190429688e+01 2.399572563171386719e+01 5.885434627532958984e+00 2.399572563171386719e+01 -2.137456178665161133e+00 1.225726413726806641e+01 5.885434627532958984e+00 1.225726413726806641e+01 -3.073572540283203125e+01
-2.666188621520996094e+01 1.317940616607666016e+01 -3.015153884887695312e+00 1.317940616607666016e+01 1.245633506774902344e+01 1.040448188781738281e+00 -3.015153884887695312e+00 1.040448188781738281e+00 -2.742328262329101562e+01
-8.053411483764648438e+00 8.675539970397949219e+00 2.372570419311523438e+01 8.675539970397949219e+00 -1.726501274108886719e+01 -3.572695970535278320e+00 2.372570419311523438e+01 -3.572695970535278320e+00 -5.085183334350585938e+01
-2.294501304626464844e+01 2.897101402282714844e+00 8.257884025573730469e+00 2.897101402282714844e+00 -3.079019546508789062e+01 -4.683598518371582031e+00 8.257884025573730469e+00 -4.683598518371582031e+00 1.778381538391113281e+01
-2.776847076416015625e+01 7.887904167175292969e+00 -3.279975891113281250e+00 7.887904167175292969e+00 -1.966331863403320312e+01 -1.312902927398681641e+00 -3.279975891113281250e+00 -1.312902927398681641e+00 -2.012530708312988281e+01