1.840699958801269531e+01 0.000000000000000000e+00 0.000000000000000000e+00 -1.599999964237213135e-01 1.899099922180175781e+01 0.000000000000000000e+00 8.100000023841857910e-02 9.799999743700027466e-02 1.897200012207031250e+01
1.850000000000000000e+01 0.000000000000000000e+00 0.000000000000000000e+00 -1.609999984502792358e-01 1.908699989318847656e+01 0.000000000000000000e+00 8.100000023841857910e-02 9.899999946355819702e-02 1.906699943542480469e+01
1.837700080871582031e+01 0.000000000000000000e+00 0.000000000000000000e+00 -1.599999964237213135e-01 1.895999908447265625e+01 0.000000000000000000e+00 7.999999821186065674e-02 9.799999743700027466e-02 1.894099998474121094e+01
1.857500076293945312e+01 0.000000000000000000e+00 0.000000000000000000e+00 -1.609999984502792358e-01 1.916399955749511719e+01 0.000000000000000000e+00 8.100000023841857910e-02 9.899999946355819702e-02 1.914399909973144531e+01
1.818700027465820312e+01 0.000000000000000000e+00 0.000000000000000000e+00 -1.580000072717666626e-01 1.876399993896484375e+01 0.000000000000000000e+00 7.999999821186065674e-02 9.700000286102294922e-02 1.874399948120117188e+01
1.871400070190429688e+01 0.000000000000000000e+00 0.000000000000000000e+00 -1.620000004768371582e-01 1.930800056457519531e+01 0.000000000000000000e+00 8.200000226497650146e-02 1.000000014901161194e-01 1.928800010681152344e+01
1.870100021362304688e+01 0.000000000000000000e+00 0.000000000000000000e+00 -1.620000004768371582e-01 1.929400062561035156e+01 0.000000000000000000e+00 8.200000226497650146e-02 1.000000014901161194e-01 1.927400016784667969e+01
1.867300033569335938e+01 0.000000000000000000e+00 0.000000000000000000e+00 -1.620000004768371582e-01 1.926499938964843750e+01 0.000000000000000000e+00 8.200000226497650146e-02 1.000000014901161194e-01 1.924500083923339844e+01
1.852099990844726562e+01 0.000000000000000000e+00 0.000000000000000000e+00 -1.609999984502792358e-01 1.910799980163574219e+01 0.000000000000000000e+00 8.100000023841857910e-02 9.899999946355819702e-02 1.908799934387207031e+01
1.878599929809570312e+01 0.000000000000000000e+00 0.000000000000000000e+00 -2.840000092983245850e-01 1.845299911499023438e+01 0.000000000000000000e+00 -9.899999946355819702e-02 -8.399999886751174927e-02 1.866399955749511719e+01
1.873299980163574219e+01 0.000000000000000000e+00 0.000000000000000000e+00 -2.829999923706054688e-01 1.840099906921386719e+01 0.000000000000000000e+00 -9.899999946355819702e-02 -8.299999684095382690e-02 1.861199951171875000e+01
1.866399955749511719e+01 0.000000000000000000e+00 0.000000000000000000e+00 -2.820000052452087402e-01 1.833399963378906250e+01 0.000000000000000000e+00 -9.799999743700027466e-02 -8.299999684095382690e-02 1.854400062561035156e+01
1.874600028991699219e+01 0.000000000000000000e+00 0.000000000000000000e+00 -2.829999923706054688e-01 1.841399955749511719e+01 0.000000000000000000e+00 -9.899999946355819702e-02 -8.299999684095382690e-02 1.862500000000000000e+01
1.869400024414062500e+01 0.000000000000000000e+00 0.000000000000000000e+00 -2.829999923706054688e-01 1.836300086975097656e+01 0.000000000000000000e+00 -9.799999743700027466e-02 -8.299999684095382690e-02 1.857299995422363281e+01
1.868499946594238281e+01 0.000000000000000000e+00 0.000000000000000000e+00 -2.820000052452087402e-01 1.835400009155273438e+01 0.000000000000000000e+00 -9.799999743700027466e-02 -8.299999684095382690e-02 1.856399917602539062e+01
1.879299926757812500e+01 0.000000000000000000e+00 0.000000000000000000e+00 -2.840000092983245850e-01 1.845999908447265625e+01 0.000000000000000000e+00 -9.899999946355819702e-02 -8.399999886751174927e-02 1.867099952697753906e+01
1.878199958801269531e+01 0.000000000000000000e+00 0.000000000000000000e+00 -2.840000092983245850e-01 1.844899940490722656e+01 0.000000000000000000e+00 -9.899999946355819702e-02 -8.399999886751174927e-02 1.866099929809570312e+01
1.919799995422363281e+01 0.000000000000000000e+00 0.000000000000000000e+00 -2.899999916553497314e-01 1.885799980163574219e+01 0.000000000000000000e+00 -1.010000035166740417e-01 -8.500000089406967163e-02 1.907399940490722656e+01
1.912599945068359375e+01 0.000000000000000000e+00 0.000000000000000000e+00 -2.890000045299530029e-01 1.878700065612792969e+01 0.000000000000000000e+00 -1.010000035166740417e-01 -8.500000089406967163e-02 1.900300025939941406e+01
1.876899909973144531e+01 0.000000000000000000e+00 0.000000000000000000e+00 -2.840000092983245850e-01 1.843700027465820312e+01 0.000000000000000000e+00 -9.899999946355819702e-02 -8.299999684095382690e-02 1.864800071716308594e+01
1.922699928283691406e+01 0.000000000000000000e+00 0.000000000000000000e+00 4.550000131130218506e-01 1.841099929809570312e+01 0.000000000000000000e+00 8.900000154972076416e-02 1.600000075995922089e-02 1.886499977111816406e+01
1.928800010681152344e+01 0.000000000000000000e+00 0.000000000000000000e+00 4.560000002384185791e-01 1.846899986267089844e+01 0.000000000000000000e+00 8.900000154972076416e-02 1.600000075995922089e-02 1.892499923706054688e+01
1.926799964904785156e+01 0.000000000000000000e+00 0.000000000000000000e+00 4.560000002384185791e-01 1.845000076293945312e+01 0.000000000000000000e+00 8.900000154972076416e-02 1.600000075995922089e-02 1.890500068664550781e+01
1.889500045776367188e+01 0.000000000000000000e+00 0.000000000000000000e+00 4.469999969005584717e-01 1.809300041198730469e+01 0.000000000000000000e+00 8.699999749660491943e-02 1.499999966472387314e-02 1.853899955749511719e+01
1.872100067138671875e+01 0.000000000000000000e+00 0.000000000000000000e+00 4.429999887943267822e-01 1.792700004577636719e+01 0.000000000000000000e+00 8.600000292062759399e-02 1.499999966472387314e-02 1.836899948120117188e+01
1.915900039672851562e+01 0.000000000000000000e+00 0.000000000000000000e+00 4.530000090599060059e-01 1.834600067138671875e+01 0.000000000000000000e+00 8.799999952316284180e-02 1.600000075995922089e-02 1.879899978637695312e+01
1.897599983215332031e+01 0.000000000000000000e+00 0.000000000000000000e+00 4.490000009536743164e-01 1.817099952697753906e+01 0.000000000000000000e+00 8.799999952316284180e-02 1.499999966472387314e-02 1.861899948120117188e+01
1.913699913024902344e+01 0.000000000000000000e+00 0.000000000000000000e+00 4.530000090599060059e-01 1.832500076293945312e+01 0.000000000000000000e+00 8.799999952316284180e-02 1.600000075995922089e-02 1.877700042724609375e+01
1.921899986267089844e+01 0.000000000000000000e+00 0.000000000000000000e+00 4.550000131130218506e-01 1.840299987792968750e+01 0.000000000000000000e+00 8.900000154972076416e-02 1.600000075995922089e-02 1.885700035095214844e+01
1.912599945068359375e+01 0.000000000000000000e+00 0.000000000000000000e+00 4.519999921321868896e-01 1.831399917602539062e+01 0.000000000000000000e+00 8.799999952316284180e-02 1.600000075995922089e-02 1.876600074768066406e+01
1.869300079345703125e+01 0.000000000000000000e+00 0.000000000000000000e+00 -3.000000026077032089e-03 1.942300033569335938e+01 0.000000000000000000e+00 -4.169999957084655762e-01 -2.849999964237213135e-01 1.866600036621093750e+01
1.865200042724609375e+01 0.000000000000000000e+00 0.000000000000000000e+00 -3.000000026077032089e-03 1.938100051879882812e+01 0.000000000000000000e+00 -4.160000085830688477e-01 -2.849999964237213135e-01 1.862500000000000000e+01
1.855400085449218750e+01 0.000000000000000000e+00 0.000000000000000000e+00 -3.000000026077032089e-03 1.927899932861328125e+01 0.000000000000000000e+00 -4.140000045299530029e-01 -2.829999923706054688e-01 1.852700042724609375e+01
1.869199943542480469e+01 0.000000000000000000e+00 0.000000000000000000e+00 -3.000000026077032089e-03 1.942200088500976562e+01 0.000000000000000000e+00 -4.169999957084655762e-01 -2.849999964237213135e-01 1.866500091552734375e+01
1.878599929809570312e+01 0.000000000000000000e+00 0.000000000000000000e+00 -3.000000026077032089e-03 1.952000045776367188e+01 0.000000000000000000e+00 -4.189999997615814209e-01 -2.870000004768371582e-01 1.875900077819824219e+01
1.885799980163574219e+01 0.000000000000000000e+00 0.000000000000000000e+00 -3.000000026077032089e-03 1.959399986267089844e+01 0.000000000000000000e+00 -4.210000038146972656e-01 -2.879999876022338867e-01 1.882999992370605469e+01
1.900799942016601562e+01 0.000000000000000000e+00 0.000000000000000000e+00 -3.000000026077032089e-03 1.975099945068359375e+01 0.000000000000000000e+00 -4.239999949932098389e-01 -2.899999916553497314e-01 1.898100090026855469e+01
1.848100090026855469e+01 0.000000000000000000e+00 0.000000000000000000e+00 -3.000000026077032089e-03 1.920199966430664062e+01 0.000000000000000000e+00 -4.129999876022338867e-01 -2.820000052452087402e-01 1.845400047302246094e+01
1.887400054931640625e+01 0.000000000000000000e+00 0.000000000000000000e+00 0.000000000000000000e+00 1.887400054931640625e+01 0.000000000000000000e+00 0.000000000000000000e+00 0.000000000000000000e+00 1.887400054931640625e+01
1.894499969482421875e+01 0.000000000000000000e+00 0.000000000000000000e+00 0.000000000000000000e+00 1.894499969482421875e+01 0.000000000000000000e+00 0.000000000000000000e+00 0.000000000000000000e+00 1.894499969482421875e+01
1.896999931335449219e+01 0.000000000000000000e+00 0.000000000000000000e+00 0.000000000000000000e+00 1.896999931335449219e+01 0.000000000000000000e+00 0.000000000000000000e+00 0.000000000000000000e+00 1.896999931335449219e+01
1.914900016784667969e+01 0.000000000000000000e+00 0.000000000000000000e+00 0.000000000000000000e+00 1.914900016784667969e+01 0.000000000000000000e+00 0.000000000000000000e+00 0.000000000000000000e+00 1.914900016784667969e+01
1.905599975585937500e+01 0.000000000000000000e+00 0.000000000000000000e+00 0.000000000000000000e+00 1.905599975585937500e+01 0.000000000000000000e+00 0.000000000000000000e+00 0.000000000000000000e+00 1.905599975585937500e+01
1.850000000000000000e+01 0.000000000000000000e+00 0.000000000000000000e+00 0.000000000000000000e+00 1.850000000000000000e+01 0.000000000000000000e+00 0.000000000000000000e+00 0.000000000000000000e+00 1.850000000000000000e+01
1.862000083923339844e+01 0.000000000000000000e+00 0.000000000000000000e+00 0.000000000000000000e+00 1.862000083923339844e+01 0.000000000000000000e+00 0.000000000000000000e+00 0.000000000000000000e+00 1.862000083923339844e+01
1.875900077819824219e+01 0.000000000000000000e+00 0.000000000000000000e+00 0.000000000000000000e+00 1.875900077819824219e+01 0.000000000000000000e+00 0.000000000000000000e+00 0.000000000000000000e+00 1.875900077819824219e+01
1.873699951171875000e+01 0.000000000000000000e+00 0.000000000000000000e+00 -2.590000033378601074e-01 1.875399971008300781e+01 0.000000000000000000e+00 3.350000083446502686e-01 -3.240000009536743164e-01 1.861300086975097656e+01
1.869099998474121094e+01 0.000000000000000000e+00 0.000000000000000000e+00 -2.579999864101409912e-01 1.870800018310546875e+01 0.000000000000000000e+00 3.339999914169311523e-01 -3.230000138282775879e-01 1.856800079345703125e+01
1.860300064086914062e+01 0.000000000000000000e+00 0.000000000000000000e+00 -2.569999992847442627e-01 1.861899948120117188e+01 0.000000000000000000e+00 3.330000042915344238e-01 -3.219999969005584717e-01 1.847999954223632812e+01
1.868099975585937500e+01 0.000000000000000000e+00 0.000000000000000000e+00 -2.579999864101409912e-01 1.869799995422363281e+01 0.000000000000000000e+00 3.339999914169311523e-01 -3.230000138282775879e-01 1.855800056457519531e+01
1.855500030517578125e+01 0.000000000000000000e+00 0.000000000000000000e+00 -2.569999992847442627e-01 1.857099914550781250e+01 0.000000000000000000e+00 3.319999873638153076e-01 -3.210000097751617432e-01 1.843199920654296875e+01
1.861700057983398438e+01 0.000000000000000000e+00 0.000000000000000000e+00 -2.569999992847442627e-01 1.863400077819824219e+01 0.000000000000000000e+00 3.330000042915344238e-01 -3.219999969005584717e-01 1.849399948120117188e+01
1.861400032043457031e+01 0.000000000000000000e+00 0.000000000000000000e+00 -2.569999992847442627e-01 1.862999916076660156e+01 0.000000000000000000e+00 3.330000042915344238e-01 -3.219999969005584717e-01 1.849099922180175781e+01
1.852000045776367188e+01 0.000000000000000000e+00 0.000000000000000000e+00 -2.560000121593475342e-01 1.853599929809570312e+01 0.000000000000000000e+00 3.310000002384185791e-01 -3.210000097751617432e-01 1.839699935913085938e+01
1.906500053405761719e+01 0.000000000000000000e+00 0.000000000000000000e+00 -2.639999985694885254e-01 1.908200073242187500e+01 0.000000000000000000e+00 3.409999907016754150e-01 -3.300000131130218506e-01 1.893899917602539062e+01
1.888800048828125000e+01 0.000000000000000000e+00 0.000000000000000000e+00 -2.610000073909759521e-01 1.890500068664550781e+01 0.000000000000000000e+00 3.379999995231628418e-01 -3.269999921321868896e-01 1.876399993896484375e+01
1.851499938964843750e+01 0.000000000000000000e+00 0.000000000000000000e+00 4.329999983310699463e-01 1.859799957275390625e+01 0.000000000000000000e+00 -4.800000041723251343e-02 1.110000014305114746e-01 1.868300056457519531e+01
1.857099914550781250e+01 0.000000000000000000e+00 0.000000000000000000e+00 4.339999854564666748e-01 1.865399932861328125e+01 0.000000000000000000e+00 -4.800000041723251343e-02 1.120000034570693970e-01 1.873900032043457031e+01
1.839999961853027344e+01 0.000000000000000000e+00 0.000000000000000000e+00 4.300000071525573730e-01 1.848299980163574219e+01 0.000000000000000000e+00 -4.800000041723251343e-02 1.110000014305114746e-01 1.856699943542480469e+01
1.900000000000000000e+01 0.000000000000000000e+00 0.000000000000000000e+00 1.459999978542327881e-01 1.820400047302246094e+01 0.000000000000000000e+00 3.429999947547912598e-01 -3.759999871253967285e-01 1.847400093078613281e+01
1.898200035095214844e+01 0.000000000000000000e+00 0.000000000000000000e+00 1.459999978542327881e-01 1.818799972534179688e+01 0.000000000000000000e+00 3.429999947547912598e-01 -3.759999871253967285e-01 1.845700073242187500e+01
1.903000068664550781e+01 0.000000000000000000e+00 0.000000000000000000e+00 1.459999978542327881e-01 1.823299980163574219e+01 0.000000000000000000e+00 3.440000116825103760e-01 -3.770000040531158447e-01 1.850300025939941406e+01
1.904999923706054688e+01 0.000000000000000000e+00 0.000000000000000000e+00 1.459999978542327881e-01 1.825300025939941406e+01 0.000000000000000000e+00 3.440000116825103760e-01 -3.770000040531158447e-01 1.852300071716308594e+01
1.896400070190429688e+01 0.000000000000000000e+00 0.000000000000000000e+00 1.459999978542327881e-01 1.817000007629394531e+01 0.000000000000000000e+00 3.429999947547912598e-01 -3.750000000000000000e-01 1.844000053405761719e+01
1.904700088500976562e+01 0.000000000000000000e+00 0.000000000000000000e+00 1.459999978542327881e-01 1.825000000000000000e+01 0.000000000000000000e+00 3.440000116825103760e-01 -3.770000040531158447e-01 1.852000045776367188e+01
1.896100044250488281e+01 0.000000000000000000e+00 0.000000000000000000e+00 1.459999978542327881e-01 1.816699981689453125e+01 0.000000000000000000e+00 3.429999947547912598e-01 -3.750000000000000000e-01 1.843700027465820312e+01
1.923500061035156250e+01 0.000000000000000000e+00 0.000000000000000000e+00 1.480000019073486328e-01 1.843000030517578125e+01 0.000000000000000000e+00 3.470000028610229492e-01 -3.810000121593475342e-01 1.870299911499023438e+01
1.936599922180175781e+01 0.000000000000000000e+00 0.000000000000000000e+00 1.490000039339065552e-01 1.855500030517578125e+01 0.000000000000000000e+00 3.499999940395355225e-01 -3.829999864101409912e-01 1.882999992370605469e+01
1.960099983215332031e+01 0.000000000000000000e+00 0.000000000000000000e+00 1.500000059604644775e-01 1.878000068664550781e+01 0.000000000000000000e+00 3.540000021457672119e-01 -3.880000114440917969e-01 1.905900001525878906e+01
1.906900024414062500e+01 0.000000000000000000e+00 0.000000000000000000e+00 1.459999978542327881e-01 1.827000045776367188e+01 0.000000000000000000e+00 3.440000116825103760e-01 -3.779999911785125732e-01 1.854100036621093750e+01
1.918899917602539062e+01 0.000000000000000000e+00 0.000000000000000000e+00 1.469999998807907104e-01 1.838599967956542969e+01 0.000000000000000000e+00 3.470000028610229492e-01 -3.799999952316284180e-01 1.865900039672851562e+01
1.853700065612792969e+01 0.000000000000000000e+00 0.000000000000000000e+00 3.379999995231628418e-01 1.854400062561035156e+01 0.000000000000000000e+00 -1.729999929666519165e-01 5.700000002980232239e-02 1.801700019836425781e+01
1.863800048828125000e+01 0.000000000000000000e+00 0.000000000000000000e+00 3.400000035762786865e-01 1.864399909973144531e+01 0.000000000000000000e+00 -1.739999949932098389e-01 5.700000002980232239e-02 1.811499977111816406e+01
1.849099922180175781e+01 0.000000000000000000e+00 0.000000000000000000e+00 3.379999995231628418e-01 1.849699974060058594e+01 0.000000000000000000e+00 -1.720000058412551880e-01 5.700000002980232239e-02 1.797200012207031250e+01
1.936499977111816406e+01 0.000000000000000000e+00 0.000000000000000000e+00 3.540000021457672119e-01 1.937100028991699219e+01 0.000000000000000000e+00 -1.800000071525573730e-01 5.999999865889549255e-02 1.882099914550781250e+01
1.917499923706054688e+01 0.000000000000000000e+00 0.000000000000000000e+00 3.499999940395355225e-01 1.918099975585937500e+01 0.000000000000000000e+00 -1.790000051259994507e-01 5.900000035762786865e-02 1.863599967956542969e+01
1.880599975585937500e+01 0.000000000000000000e+00 0.000000000000000000e+00 3.429999947547912598e-01 1.881200027465820312e+01 0.000000000000000000e+00 -1.749999970197677612e-01 5.799999833106994629e-02 1.827700042724609375e+01
1.871999931335449219e+01 0.000000000000000000e+00 0.000000000000000000e+00 3.420000076293945312e-01 1.872599983215332031e+01 0.000000000000000000e+00 -1.739999949932098389e-01 5.799999833106994629e-02 1.819400024414062500e+01
1.887199974060058594e+01 0.000000000000000000e+00 0.000000000000000000e+00 3.449999988079071045e-01 1.887800025939941406e+01 0.000000000000000000e+00 -1.759999990463256836e-01 5.799999833106994629e-02 1.834199905395507812e+01
1.887100028991699219e+01 0.000000000000000000e+00 0.000000000000000000e+00 3.449999988079071045e-01 1.887700080871582031e+01 0.000000000000000000e+00 -1.759999990463256836e-01 5.799999833106994629e-02 1.834000015258789062e+01
1.847500038146972656e+01 0.000000000000000000e+00 0.000000000000000000e+00 3.249999880790710449e-01 1.877000045776367188e+01 0.000000000000000000e+00 3.770000040531158447e-01 5.999999865889549255e-02 1.838500022888183594e+01
1.823800086975097656e+01 0.000000000000000000e+00 0.000000000000000000e+00 3.210000097751617432e-01 1.852899932861328125e+01 0.000000000000000000e+00 3.729999959468841553e-01 5.900000035762786865e-02 1.814900016784667969e+01
1.878499984741210938e+01 0.000000000000000000e+00 0.000000000000000000e+00 3.300000131130218506e-01 1.908499908447265625e+01 0.000000000000000000e+00 3.840000033378601074e-01 6.100000068545341492e-02 1.869300079345703125e+01
1.888500022888183594e+01 0.000000000000000000e+00 0.000000000000000000e+00 3.319999873638153076e-01 1.918700027465820312e+01 0.000000000000000000e+00 3.860000073909759521e-01 6.100000068545341492e-02 1.879299926757812500e+01
1.885099983215332031e+01 0.000000000000000000e+00 0.000000000000000000e+00 3.319999873638153076e-01 1.915200042724609375e+01 0.000000000000000000e+00 3.849999904632568359e-01 6.100000068545341492e-02 1.875900077819824219e+01
1.852199935913085938e+01 0.000000000000000000e+00 0.000000000000000000e+00 3.260000050067901611e-01 1.881800079345703125e+01 0.000000000000000000e+00 3.779999911785125732e-01 5.999999865889549255e-02 1.843199920654296875e+01
1.869199943542480469e+01 0.000000000000000000e+00 0.000000000000000000e+00 3.289999961853027344e-01 1.899099922180175781e+01 0.000000000000000000e+00 3.819999992847442627e-01 5.999999865889549255e-02 1.860000038146972656e+01
1.865800094604492188e+01 0.000000000000000000e+00 0.000000000000000000e+00 3.280000090599060059e-01 1.895599937438964844e+01 0.000000000000000000e+00 3.810000121593475342e-01 5.999999865889549255e-02 1.856699943542480469e+01
1.811599922180175781e+01 0.000000000000000000e+00 0.000000000000000000e+00 -2.179999947547912598e-01 1.852899932861328125e+01 0.000000000000000000e+00 1.759999990463256836e-01 3.650000095367431641e-01 1.842900085449218750e+01
1.815200042724609375e+01 0.000000000000000000e+00 0.000000000000000000e+00 -2.189999967813491821e-01 1.856599998474121094e+01 0.000000000000000000e+00 1.759999990463256836e-01 3.659999966621398926e-01 1.846599960327148438e+01
1.849200057983398438e+01 0.000000000000000000e+00 0.000000000000000000e+00 -2.230000048875808716e-01 1.891300010681152344e+01 0.000000000000000000e+00 1.790000051259994507e-01 3.729999959468841553e-01 1.881100082397460938e+01
1.827400016784667969e+01 0.000000000000000000e+00 0.000000000000000000e+00 -2.199999988079071045e-01 1.869099998474121094e+01 0.000000000000000000e+00 1.770000010728836060e-01 3.689999878406524658e-01 1.858900070190429688e+01
1.837899971008300781e+01 0.000000000000000000e+00 0.000000000000000000e+00 -2.210000008344650269e-01 1.879800033569335938e+01 0.000000000000000000e+00 1.780000030994415283e-01 3.709999918937683105e-01 1.869599914550781250e+01
1.841399955749511719e+01 0.000000000000000000e+00 0.000000000000000000e+00 -2.220000028610229492e-01 1.883399963378906250e+01 0.000000000000000000e+00 1.780000030994415283e-01 3.709999918937683105e-01 1.873100090026855469e+01
1.875399971008300781e+01 0.000000000000000000e+00 0.000000000000000000e+00 -2.259999960660934448e-01 1.918199920654296875e+01 0.000000000000000000e+00 1.819999963045120239e-01 3.779999911785125732e-01 1.907799911499023438e+01
1.873500061035156250e+01 0.000000000000000000e+00 0.000000000000000000e+00 -2.259999960660934448e-01 1.916200065612792969e+01 0.000000000000000000e+00 1.809999942779541016e-01 3.779999911785125732e-01 1.905800056457519531e+01
