9.390536308288574219e+00 8.104467391967773438e+00 6.696510791778564453e+00 1.257251644134521484e+01 1.442057013511657715e+00 1.676427078247070312e+01 4.653376102447509766e+00 4.631066799163818359e+00 2.021321058273315430e+00 1.096691608428955078e+01 7.306976795196533203e+00 8.265269994735717773e-01 7.777036190032958984e+00 1.748643684387207031e+01 1.409997081756591797e+01 9.091726303100585938e+00 4.052476882934570312e+00 1.157747077941894531e+01 1.407191562652587891e+01 1.438933658599853516e+01 1.114857101440429688e+01 3.469945907592773438e+00 9.176920056343078613e-01 6.312430858612060547e+00 7.365685939788818359e+00 3.227946996688842773e+00 8.624260902404785156e+00 9.661746025085449219e+00 1.286393737792968750e+01 5.108840942382812500e+00 1.399435997009277344e+00 8.923557281494140625e+00 2.674751043319702148e+00 1.113621616363525391e+01 1.117073726654052734e+01 1.306247138977050781e+01 7.904675960540771484e+00 1.001994967460632324e+00 1.879257011413574219e+01 1.369886040687561035e+00 1.043943691253662109e+01 7.839850902557373047e+00 8.955016136169433594e+00 8.064356803894042969e+00 1.466277122497558594e+01 4.584586143493652344e+00 4.198916912078857422e+00 1.252007102966308594e+01 5.306245803833007812e+00 1.813293647766113281e+01 1.040057086944580078e+01 1.767341613769531250e+01 7.775547027587890625e+00 1.693547058105468750e+01 2.608746051788330078e+00 1.392893695831298828e+01 1.483787059783935547e+01 1.392501640319824219e+01 1.669913673400878906e+01 1.462267112731933594e+01 1.628871536254882812e+01 1.281643676757812500e+01 1.613197135925292969e+01 1.272021579742431641e+01 1.257583713531494141e+01 1.708607101440429688e+01 7.586575984954833984e+00 1.081822991371154785e+00 4.619340896606445312e+00 3.718316078186035156e+00 1.490523719787597656e+01 3.184731006622314453e+00 6.751445770263671875e+00 1.145353698730468750e+01 1.429247093200683594e+01 7.784885883331298828e+00 6.047246932983398438e+00 1.785327148437500000e+01 1.469441604614257812e+01 1.375763702392578125e+01 1.501660943031311035e+00 8.186129927635192871e-01 1.246611499786376953e+01 1.879980087280273438e+01 4.846985816955566406e+00 9.756156921386718750e+00 4.245919883251190186e-01 4.635876178741455078e+00 1.842633628845214844e+01 2.607161045074462891e+00 1.799061584472656250e+01 1.575403690338134766e+01 3.637061119079589844e+00 1.822251510620117188e+01 1.726653671264648438e+01 1.826927185058593750e+01 1.742541694641113281e+01 1.486536979675292969e+00 1.085337066650390625e+01 1.421871566772460938e+01 1.830683708190917969e+01 9.346970558166503906e+00 7.426435947418212891e+00 1.085303688049316406e+01 8.150860786437988281e+00 4.285245895385742188e+00 1.025470733642578125e+01 5.197501182556152344e+00 1.317322969436645508e+00 1.769433784484863281e+01 9.709421157836914062e+00 1.743911552429199219e+01 1.248943710327148438e+01 1.121417140960693359e+01 2.044945955276489258e+00 1.780467033386230469e+00 1.828320980072021484e+00 7.080330252647399902e-01 8.827627182006835938e+00 1.220437145233154297e+01 3.540106058120727539e+00 1.099563002586364746e+00 1.577477073669433594e+01 1.051561641693115234e+01 1.659543609619140625e+01 3.833170890808105469e+00 1.085301589965820312e+01 2.538670003414154053e-01 6.448431015014648438e+00 1.659071540832519531e+01 1.458896994590759277e+00 1.491367053985595703e+01 1.645041656494140625e+01 4.047936916351318359e+00 1.866577148437500000e+01 3.506899997591972351e-02 9.980970025062561035e-01 4.813920974731445312e+00 1.479511642456054688e+01 4.719916820526123047e+00 4.209411144256591797e+00 1.475231647491455078e+01 6.766930222511291504e-01 4.458930969238281250e+00 3.368726015090942383e+00 1.642073631286621094e+01 1.775067138671875000e+01 1.352611637115478516e+01 9.017996788024902344e+00 7.711471080780029297e+00 2.742995977401733398e+00 3.925446987152099609e+00 8.270840644836425781e+00 1.473151588439941406e+01 3.891587018966674805e+00 8.425271034240722656e+00 6.521769762039184570e-01 5.776536941528320312e+00 5.560871124267578125e+00 9.207435607910156250e+00 3.389399945735931396e-01 9.479600906372070312e+00 1.449841594696044922e+01 1.051243686676025391e+01 2.840030908584594727e+00 1.106431579589843750e+01 7.850186824798583984e+00 1.033943080902099609e+01 9.641056060791015625e+00 9.727336883544921875e+00 3.336991071701049805e+00 7.984556198120117188e+00 2.296226978302001953e+00 1.549407100677490234e+01 7.692855834960937500e+00 9.403547286987304688e+00 1.885407066345214844e+01 1.793981552124023438e+01 6.653377056121826172e+00 9.437150955200195312e+00 1.630701637268066406e+01 1.183483695983886719e+01 7.082301139831542969e+00 3.244636058807373047e+00 7.652816772460937500e+00 1.542157077789306641e+01 1.197581577301025391e+01 5.133117198944091797e+00 1.507057094573974609e+01 5.935986042022705078e+00 1.196563720703125000e+01 2.515691041946411133e+00 1.749211692810058594e+01 1.637083625793457031e+01 6.895411014556884766e+00 5.917806148529052734e+00 5.192136764526367188e+00 5.447980880737304688e+00 2.266586065292358398e+00 5.195406913757324219e+00 1.728427124023437500e+01 1.395171642303466797e+01 1.566843700408935547e+01 6.727021217346191406e+00 1.041561603546142578e+01 3.305087089538574219e+00 2.463171005249023438e+00 1.488031578063964844e+01 5.816667079925537109e+00 1.215167140960693359e+01 4.247285842895507812e+00 8.100116729736328125e+00 1.110067081451416016e+01 1.297111606597900391e+01 1.758756995201110840e+00 1.239397144317626953e+01 1.455271625518798828e+01 1.017476654052734375e+01 1.182947063446044922e+01 1.318241596221923828e+01 9.704107284545898438e+00 1.620577049255371094e+01 1.099531555175781250e+01 1.323363685607910156e+01 8.142951011657714844e+00 6.745686054229736328e+00 1.457953739166259766e+01 1.660077095031738281e+01 8.187986373901367188e+00 1.461053657531738281e+01 1.622141003608703613e+00 1.094061565399169922e+01 1.459923744201660156e+01 1.491447067260742188e+01 4.299826145172119141e+00 1.436543655395507812e+01 9.715841293334960938e+00 1.770541572570800781e+01 1.577993679046630859e+01 1.393067073822021484e+01 1.339091587066650391e+01 1.816633605957031250e+01 1.228909015655517578e+00 9.521865844726562500e+00 1.503883743286132812e+01 1.065987110137939453e+01 3.113385915756225586e+00 3.903816938400268555e+00 4.812830924987792969e+00 8.937266349792480469e+00 5.974926948547363281e+00 4.195120811462402344e+00 1.731381607055664062e+01 7.077686786651611328e+00 3.498720884323120117e+00 6.736256122589111328e+00 6.044346809387207031e+00 1.058117103576660156e+01 1.821511650085449219e+01 3.691797018051147461e+00 8.619820594787597656e+00 7.326226234436035156e+00 1.583727002143859863e+00 1.239517116546630859e+01 5.564586162567138672e+00 6.135389804840087891e-01 1.361287117004394531e+01 8.537060022354125977e-01 1.538406968116760254e+00 1.752707099914550781e+01 6.794775962829589844e+00 8.680847167968750000e+00 1.622617149353027344e+01 4.820075988769531250e+00 6.898036956787109375e+00 1.824197006225585938e+01 3.033826112747192383e+00 1.129513740539550781e+01 2.115120887756347656e+00 7.139195919036865234e+00 1.737633705139160156e+01 2.104681015014648438e+00 6.433886051177978516e+00 1.706843757629394531e+01 1.896307182312011719e+01 2.245605945587158203e+00 1.732123756408691406e+01 4.944860935211181641e+00 1.000292587280273438e+01 1.587043666839599609e+01 7.164841175079345703e+00 3.789885997772216797e+00 1.672213745117187500e+01 8.109641075134277344e+00 4.147146224975585938e+00 1.080693721771240234e+01 8.275341033935546875e+00 8.322055816650390625e+00 1.384133720397949219e+01 1.397317123413085938e+01 8.678886413574218750e+00 1.200243663787841797e+01 1.761361002922058105e+00 2.154825925827026367e+00 1.183323669433593750e+01 1.265347099304199219e+01 6.858059763908386230e-01 1.504603672027587891e+01 1.677057075500488281e+01 1.205081558227539062e+01 1.001852703094482422e+01 9.530439972877502441e-01 1.381791591644287109e+01 3.137996912002563477e+00 1.026173949241638184e+00 1.603731536865234375e+01 2.783566951751708984e+00 5.920320987701416016e+00 1.659801673889160156e+01 9.508236885070800781e+00 9.156021118164062500e+00 9.307175636291503906e+00 2.911566972732543945e+00 5.885341167449951172e+00 1.271945953369140625e+00 6.270916938781738281e+00 1.370417118072509766e+01 1.216441631317138672e+01 7.981397151947021484e+00 1.344927120208740234e+01 1.222421646118164062e+01 4.662016868591308594e+00 1.171277141571044922e+01 1.789851570129394531e+01 4.387957096099853516e+00 1.595967102050781250e+01 9.990076065063476562e+00 3.860757112503051758e+00 1.757657051086425781e+01 1.547181606292724609e+01 1.133003711700439453e+01 1.861977005004882812e+01 1.559161567687988281e+01 1.346603679656982422e+01 4.659400939941406250e+00 1.463051605224609375e+01 1.679653739929199219e+01 3.605820894241333008e+00 1.035581588745117188e+01 1.021205711364746094e+01 7.698571205139160156e+00 1.682061576843261719e+01 1.619523620605468750e+01 1.082007122039794922e+01 1.530451583862304688e+01 1.892863655090332031e+01 1.253507137298583984e+01 1.172851562500000000e+01 1.651873779296875000e+01 8.445720672607421875e+00 1.175281620025634766e+01 1.704623794555664062e+01 1.720987129211425781e+01 1.345591640472412109e+01 1.326093673706054688e+01 1.420007133483886719e+01 6.142086029052734375e+00 7.183947086334228516e+00 5.422350168228149414e-01 7.327385902404785156e+00 3.159596920013427734e+00 6.189691066741943359e+00 3.682856082916259766e+00 5.730436801910400391e+00 4.528450965881347656e+00 1.734331512451171875e+01 6.096567153930664062e+00 1.931511044502258301e+00 1.124979019165039062e+00 3.745286941528320312e+00 4.501531124114990234e+00 7.620076179504394531e+00 6.674847126007080078e+00 5.618831157684326172e+00 4.686096191406250000e+00 1.805083656311035156e+01 1.705189943313598633e-01 3.716495990753173828e+00 2.818146944046020508e+00 3.035331010818481445e+00 1.821781539916992188e+01 2.087846994400024414e+00 2.349260002374649048e-01 8.149226188659667969e+00 4.750946998596191406e+00 2.961261034011840820e+00 9.823306083679199219e+00 2.170587062835693359e+00 7.722220897674560547e+00 8.381296157836914062e+00 5.356226921081542969e+00 9.746251106262207031e+00 3.891916036605834961e+00 3.171247005462646484e+00 6.458840847015380859e+00 4.671219885349273682e-01 7.926126956939697266e+00 4.407831192016601562e+00 1.757041549682617188e+01 2.092467069625854492e+00 7.084220886230468750e+00 1.780411529541015625e+01 1.137653732299804688e+01 8.882540702819824219e+00 2.389676094055175781e+00 1.843953704833984375e+01 3.147260904312133789e+00 9.796040058135986328e-01 2.373377084732055664e+00 9.690700531005859375e+00 7.038856029510498047e+00 1.232491016387939453e+00 1.032757091522216797e+01 8.945546150207519531e+00 8.047369718551635742e-01 1.305207061767578125e+01 1.379426002502441406e+00 6.714437007904052734e+00 1.164887142181396484e+01 7.172795772552490234e+00 3.533137083053588867e+00 1.286987113952636719e+01 4.810215950012207031e+00 5.273276805877685547e+00 1.048187065124511719e+01 3.865616083145141602e+00 1.613587021827697754e+00 1.338457107543945312e+01 6.810646057128906250e+00 8.004957199096679688e+00 1.106937122344970703e+01 9.051690101623535156e-01 5.203406810760498047e+00 7.903390884399414062e+00 5.564425945281982422e+00 9.798697471618652344e+00 7.091880798339843750e+00 8.563085556030273438e+00 7.998326778411865234e+00 1.703857040405273438e+01 1.811531639099121094e+01 5.668897151947021484e+00 1.755387115478515625e+01 5.684966087341308594e+00 6.832386970520019531e+00 1.619877052307128906e+01 4.246726036071777344e+00 4.997547149658203125e+00 1.852847099304199219e+01 3.270106077194213867e+00 8.141036987304687500e+00 1.792737007141113281e+01 6.949116230010986328e+00 8.973246574401855469e+00 1.425287055969238281e+01 2.678076028823852539e+00 7.206689715385437012e-01 1.787867164611816406e+01 6.112215995788574219e+00 4.232679903507232666e-01 1.560837078094482422e+01 1.624011611938476562e+01 9.670706748962402344e+00 5.534639954566955566e-01 7.000755786895751953e+00 4.163810014724731445e-01 2.295260906219482422e+00 5.792716026306152344e+00 1.506703662872314453e+01 1.886067008972167969e+01 3.872545957565307617e+00 1.176743698120117188e+01 3.130640089511871338e-01 1.337087035179138184e+00 1.550153732299804688e+01 1.873957061767578125e+01 8.774426460266113281e+00 1.276553726196289062e+01 1.890607070922851562e+01 3.741666078567504883e+00 9.352546691894531250e+00 2.640531063079833984e+00 5.692565917968750000e+00 1.622613716125488281e+01 3.016170978546142578e+00 9.060440063476562500e-01 1.819003677368164062e+01 6.158171176910400391e+00 3.852046012878417969e+00 1.233863735198974609e+01 3.650270938873291016e+00 5.546316146850585938e+00 1.626673698425292969e+01 8.917740821838378906e+00 4.136546134948730469e+00 1.723583793640136719e+01 5.960890769958496094e+00 1.757876038551330566e+00 1.536373710632324219e+01 4.429851055145263672e+00 1.056463003158569336e+00 1.133853721618652344e+01 2.064590930938720703e+00 9.134716033935546875e+00 1.750523757934570312e+01 6.209781169891357422e+00 1.626251602172851562e+01 1.420493698120117188e+01 6.332911014556884766e+00 2.394916057586669922e+00 1.526913738250732422e+01 8.428041458129882812e+00 8.692186355590820312e+00 1.214313697814941406e+01 1.284757137298583984e+01 2.890316009521484375e+00 1.193793678283691406e+01 7.174011230468750000e+00 3.173906087875366211e+00 9.410297393798828125e+00 9.372600555419921875e+00 3.533335924148559570e+00 1.860623741149902344e+01 8.885721206665039062e+00 5.193366050720214844e+00 1.201823711395263672e+01 9.687661170959472656e+00 5.533596038818359375e+00 1.761143684387207031e+01 1.286727142333984375e+01 9.034616470336914062e+00 1.387263679504394531e+01 1.582567119598388672e+01 1.538919955492019653e-01 1.626093673706054688e+01 1.177697086334228516e+01 8.652106285095214844e+00 1.488363742828369141e+01 8.255890846252441406e+00 7.973125934600830078e+00 1.297263717651367188e+01 3.337511062622070312e+00 3.277215957641601562e+00 1.023390674591064453e+01 1.305187129974365234e+01 9.848819971084594727e-01 1.309713745117187500e+01 1.650527191162109375e+01 7.651646137237548828e+00 1.790133666992187500e+01 1.764207077026367188e+01 2.844696044921875000e+00 1.348233699798583984e+01 1.221667098999023438e+01 7.889746189117431641e+00 1.007980728149414062e+01 2.092751026153564453e+00 1.975245952606201172e+00 1.614093780517578125e+01 1.552467060089111328e+01 6.247005939483642578e+00 1.392453670501708984e+01 1.433847141265869141e+01 8.906576156616210938e+00 1.558853721618652344e+01 1.304017066955566406e+01 1.117391586303710938e+01 9.332117080688476562e+00 1.824477005004882812e+01 1.351411628723144531e+01 1.205903720855712891e+01 3.168759942054748535e-01 1.298971557617187500e+01 8.968927383422851562e+00 2.269961118698120117e+00 1.296411609649658203e+01 2.703526973724365234e+00 2.751030921936035156e+00 1.432481575012207031e+01 4.940567016601562500e+00 6.132230162620544434e-01 1.022251605987548828e+01 7.397946834564208984e+00 3.485881090164184570e+00 1.798161506652832031e+01 2.580980062484741211e-01 1.673047065734863281e+01 1.031106567382812500e+01 4.744317054748535156e+00 5.544560909271240234e+00 9.876305580139160156e+00 1.630246996879577637e+00 4.476420879364013672e+00 1.709281539916992188e+01 8.518136978149414062e+00 7.446310997009277344e+00 1.354701614379882812e+01 5.443306922912597656e+00 1.011446094512939453e+01 1.328401565551757812e+01 4.202917098999023438e+00 1.332367134094238281e+01 1.588111591339111328e+01 4.725767135620117188e+00 6.445580959320068359e+00 1.129671573638916016e+01 8.428256988525390625e+00 7.914700984954833984e+00 1.570551586151123047e+01 7.562646865844726562e+00 4.343901157379150391e+00 1.439441585540771484e+01 1.694396972656250000e+00 6.540000915527343750e+00 1.801141548156738281e+01 5.121296882629394531e+00 1.388127136230468750e+01 1.121731567382812500e+01 3.006526947021484375e+00 1.117597103118896484e+01 1.492501640319824219e+01 1.223685979843139648e+00 1.096267127990722656e+01 1.382481575012207031e+01 7.141427040100097656e+00 1.420347118377685547e+01 1.246861553192138672e+01 8.983306884765625000e+00 1.171007061004638672e+01 7.903540134429931641e-01 7.897646903991699219e+00 1.490127086639404297e+01 1.677121543884277344e+01 4.455407142639160156e+00 9.991041183471679688e+00 1.110011577606201172e+01 6.241877079010009766e+00 1.255557060241699219e+01 1.689441680908203125e+01 8.628327369689941406e+00 1.099357128143310547e+01 1.113261604309082031e+01 9.036697387695312500e+00 1.488697147369384766e+01 1.024219608306884766e+01 2.445127010345458984e+00 5.742499977350234985e-02 1.610141563415527344e+01 3.528136968612670898e+00 1.589457130432128906e+01 1.095411586761474609e+01 5.544726848602294922e+00 1.777057075500488281e+01 1.099401569366455078e+01 2.880597114562988281e+00 1.597897052764892578e+01 6.238706111907958984e+00 1.048423671722412109e+01 1.708527183532714844e+01 7.866735935211181641e+00 3.841996908187866211e+00 1.724037170410156250e+01 1.109912991523742676e+00 2.971337080001831055e+00 1.582137107849121094e+01 2.958775997161865234e+00 5.407416820526123047e+00 1.445687103271484375e+01 1.521471595764160156e+01 1.061053657531738281e+01 1.668867111206054688e+01 1.076871585845947266e+01 1.156153678894042969e+01 2.303311109542846680e+00 1.648361587524414062e+01 1.315053653717041016e+01 1.859937095642089844e+01 1.611651611328125000e+01 1.732333755493164062e+01 4.929501056671142578e+00 1.457361602783203125e+01 1.825626969337463379e+00 1.878507041931152344e+01 1.709711647033691406e+01 1.352113723754882812e+01 3.247631072998046875e+00 9.063446044921875000e+00 1.670083618164062500e+01 1.980260968208312988e+00 1.629021644592285156e+01 2.368627071380615234e+00 3.927130937576293945e+00 1.543061637878417969e+01 1.669643783569335938e+01 1.805611014366149902e+00 8.808115959167480469e+00 1.034815692901611328e+01 6.210000991821289062e+00 9.636686325073242188e+00 1.093513679504394531e+01 9.438441276550292969e+00 1.488511562347412109e+01 1.154003715515136719e+01 4.927361011505126953e+00 1.184271621704101562e+01 1.138663673400878906e+01 6.745700836181640625e+00 1.388971614837646484e+01 1.465453720092773438e+01 4.123641014099121094e+00 1.458711624145507812e+01 1.020995712280273438e+01 9.255531311035156250e+00 1.105961608886718750e+01 1.488713741302490234e+01 5.746601104736328125e+00 1.290271568298339844e+01 1.790873718261718750e+01 3.726031064987182617e+00 1.083821582794189453e+01 1.748443794250488281e+01 1.002743053436279297e+01 1.278851604461669922e+01 1.485193729400634766e+01 8.984730720520019531e+00 1.470441627502441406e+01 1.247843742370605469e+01 1.277017116546630859e+01 1.635791587829589844e+01 1.437463665008544922e+01 1.016562080383300781e+01 1.675181579589843750e+01 1.756623649597167969e+01 9.096751213073730469e+00 1.277241611480712891e+01 1.783303642272949219e+01 7.360880851745605469e+00 1.506261634826660156e+01 1.683613777160644531e+01 1.186887073516845703e+01 1.736051559448242188e+01 1.575063705444335938e+01 1.633417129516601562e+01 1.404652404785156250e+01 1.308639943599700928e-01 1.403627109527587891e+01 1.743121528625488281e+01 3.749409914016723633e-01 1.309317111968994141e+01 1.357751560211181641e+01 1.777663612365722656e+01 1.696557044982910156e+01 2.281800061464309692e-01 1.157973670959472656e+01 1.283267116546630859e+01 1.206961631774902344e+01 1.207863712310791016e+01 1.495437145233154297e+01 1.062101554870605469e+01 1.753633689880371094e+01 1.566337108612060547e+01 1.439061641693115234e+01 1.414593696594238281e+01 1.579687118530273438e+01 1.120631599426269531e+01 1.612473678588867188e+01 1.883617019653320312e+01 1.250941562652587891e+01 1.467673683166503906e+01 1.310757064819335938e+01