-6.240558593750000000e+04
-6.240432421875000000e+04
-6.240278125000000000e+04
-6.240342187500000000e+04
-6.240456250000000000e+04
-6.239142187500000000e+04
-6.239358593750000000e+04
-6.239708593750000000e+04
-6.239501562500000000e+04
-6.240458984375000000e+04
-6.240652343750000000e+04
-6.240795312500000000e+04
-6.240774609375000000e+04
-6.240791796875000000e+04
-6.240470312500000000e+04
-6.240531250000000000e+04
-6.240474609375000000e+04
-6.239367968750000000e+04
-6.239187500000000000e+04
-6.240028906250000000e+04
-6.240220312500000000e+04
-6.239924609375000000e+04
-6.240215625000000000e+04
-6.240610937500000000e+04
-6.241357812500000000e+04
-6.239651953125000000e+04
-6.239987109375000000e+04
-6.239766015625000000e+04
-6.239532812500000000e+04
-6.239249218750000000e+04
-6.240376953125000000e+04
-6.240603515625000000e+04
-6.240321093750000000e+04
-6.239428515625000000e+04
-6.239266015625000000e+04
-6.239324609375000000e+04
-6.238707031250000000e+04
-6.239807031250000000e+04
-6.239605859375000000e+04
-6.239691796875000000e+04
-6.239430468750000000e+04
-6.239276171875000000e+04
-6.239311328125000000e+04
-6.240373046875000000e+04
-6.240072656250000000e+04
-6.239697265625000000e+04
-6.240539453125000000e+04
-6.240962109375000000e+04
-6.240550781250000000e+04
-6.240712500000000000e+04
-6.240733203125000000e+04
-6.240681640625000000e+04
-6.240593359375000000e+04
-6.240833984375000000e+04
-6.239708203125000000e+04
-6.239533593750000000e+04
-6.240697265625000000e+04
-6.240859375000000000e+04
-6.240107031250000000e+04
-6.241592968750000000e+04
-6.241847265625000000e+04
-6.241859765625000000e+04
-6.241870703125000000e+04
-6.241634375000000000e+04
-6.241679296875000000e+04
-6.240737109375000000e+04
-6.239478125000000000e+04
-6.239410937500000000e+04
-6.239125390625000000e+04
-6.239755468750000000e+04
-6.239279687500000000e+04
-6.242513281250000000e+04
-6.242032421875000000e+04
-6.242099218750000000e+04
-6.238826171875000000e+04
-6.239090625000000000e+04
-6.240118750000000000e+04
-6.240045703125000000e+04
-6.239689453125000000e+04
-6.239339843750000000e+04
-6.241996093750000000e+04
-6.242029296875000000e+04
-6.240224609375000000e+04
-6.240280468750000000e+04
-6.240363281250000000e+04
-6.239663281250000000e+04
-6.239518359375000000e+04
-6.239530859375000000e+04
-6.242123046875000000e+04
-6.242137109375000000e+04
-6.240538671875000000e+04
-6.240742578125000000e+04
-6.240543750000000000e+04
-6.240500781250000000e+04
-6.239234375000000000e+04
-6.239351171875000000e+04
