-7.030018568038940430e-01 -7.748904824256896973e-01 -6.769139766693115234e-01 1.058466807007789612e-01 -2.581763267517089844e-01 4.014762341976165771e-01 -1.853302679955959320e-02 4.262334108352661133e-01 -6.210963800549507141e-02 -1.914777904748916626e-01 -5.016016960144042969e-01 7.688473910093307495e-02 -3.367502987384796143e-01 3.598979115486145020e-02 -1.227449923753738403e-01 -6.445293128490447998e-02 -2.771567106246948242e-01 2.839680910110473633e-01 -2.348533272743225098e-01 -2.681177854537963867e-01 1.234289035201072693e-01 -1.520843654870986938e-01 -6.582631468772888184e-01 2.671715915203094482e-01 3.017056286334991455e-01 -2.838498055934906006e-01 1.020532622933387756e-01 3.621579110622406006e-01 -2.356966584920883179e-01 4.812092483043670654e-01 4.986156523227691650e-01 4.452585279941558838e-01 -7.113523483276367188e-01 -5.807531476020812988e-01 -1.297178268432617188e-01 -3.557029366493225098e-01 1.427024155855178833e-01 3.008942008018493652e-01 1.898096501827239990e-01 -4.138042032718658447e-01 -3.752627968788146973e-01 4.287854731082916260e-01 3.693102300167083740e-01 -1.137620732188224792e-01 1.016167029738426208e-01 4.772636666893959045e-02 -5.793138146400451660e-01 6.469348669052124023e-01 2.194426506757736206e-01 1.288492977619171143e-01 3.813290894031524658e-01 -1.218939498066902161e-01 6.783660650253295898e-01 -3.625950217247009277e-01 1.024322509765625000e-01 1.976108998060226440e-01 2.067321538925170898e-02 -3.149992227554321289e-01 -3.190276622772216797e-01 1.157649606466293335e-01 2.690027356147766113e-01 -2.165589109063148499e-02 1.049277633428573608e-01 3.009296357631683350e-01 4.067002236843109131e-01 1.164216250181198120e-01 -2.816011011600494385e-01 -1.596243679523468018e-02 -1.520396322011947632e-01 -9.198585152626037598e-02 -4.762326478958129883e-01 -2.046156078577041626e-01 -2.627822197973728180e-02 1.433791220188140869e-01 -2.376985177397727966e-02 -2.559348344802856445e-01 -2.628840208053588867e-01 2.477813363075256348e-01 6.518338322639465332e-01 6.042602062225341797e-01 2.755935192108154297e-01 8.891235291957855225e-02 1.069918423891067505e-01 4.208978712558746338e-01 -2.005913108587265015e-01 -6.132960319519042969e-01 -1.429574638605117798e-01 -3.493718430399894714e-02 -3.412831202149391174e-02 -2.494571805000305176e-01 -3.042196333408355713e-01 -4.829766228795051575e-02 -1.226920261979103088e-01 -7.670424878597259521e-02 3.184913396835327148e-01 -2.085442692041397095e-01 -5.903870612382888794e-02 1.049843281507492065e-01 -3.567354381084442139e-02 1.915641725063323975e-01 1.215447932481765747e-01 -1.287150979042053223e-01 -2.732959389686584473e-01 2.538136839866638184e-01 2.376743555068969727e-01 -2.262432128190994263e-01 2.887997031211853027e-01 -3.813352584838867188e-01 1.486971974372863770e-02 -1.408347636461257935e-01 -1.890614479780197144e-01 -1.402372419834136963e-01 2.896728813648223877e-01 -8.870564103126525879e-01 -4.095695614814758301e-01 1.203805953264236450e-01 -2.024034261703491211e-01 -1.663406193256378174e-01 7.225058078765869141e-01 1.660372316837310791e-01 6.226446628570556641e-01 -1.368624120950698853e-01 -3.111708760261535645e-01 -9.550621360540390015e-02 4.656525701284408569e-02 7.567543983459472656e-01 1.809789389371871948e-01 9.291607886552810669e-02 8.022460341453552246e-02 4.514343291521072388e-02 -2.172808498144149780e-01 4.962142407894134521e-01 1.936354637145996094e-01 -4.281504154205322266e-01 -2.439072132110595703e-01 2.408054322004318237e-01 3.019658029079437256e-01 -1.594161242246627808e-01 1.951930299401283264e-02 1.184034347534179688e-01 -1.598964035511016846e-01 -2.304377108812332153e-01 -2.750381231307983398e-01 3.827190026640892029e-02 1.686155349016189575e-01 1.364078372716903687e-01 1.582827866077423096e-01 1.296658907085657120e-02 1.709331274032592773e-01 -4.751450717449188232e-01 6.099120527505874634e-02 -2.587517499923706055e-01 4.558874964714050293e-01 -1.515968888998031616e-01 -5.037305876612663269e-03 2.605530619621276855e-01 5.213375017046928406e-02 -6.348002701997756958e-02 8.636335842311382294e-03 -2.627770602703094482e-02 -2.990434765815734863e-01 -4.622895270586013794e-02 8.720144033432006836e-01 3.770296871662139893e-01 8.301167190074920654e-02 -2.805690765380859375e-01 -1.825164556503295898e-01 -4.660413265228271484e-01 3.626716434955596924e-01 -3.798476159572601318e-01 1.030031323432922363e+00 1.922876760363578796e-02 -1.959396749734878540e-01 -4.517706334590911865e-01 1.670183688402175903e-01 1.063341498374938965e-01 -1.698018461465835571e-01 -2.882705628871917725e-01 2.260164469480514526e-01 2.736322581768035889e-02 -1.393820941448211670e-01 6.059062201529741287e-03 5.216151848435401917e-02 7.074956595897674561e-02 2.453429102897644043e-01 2.554504275321960449e-01 -2.144387662410736084e-01 -2.458941489458084106e-01 4.877048730850219727e-01 -4.360097944736480713e-01 -1.554000526666641235e-01 -7.370890676975250244e-02 9.455490112304687500e-02 -2.825025655329227448e-02 1.804899126291275024e-01 -1.830322295427322388e-01 -3.036704659461975098e-01 -1.459430158138275146e-01 -8.166133612394332886e-02 2.931777946650981903e-02 -7.466946542263031006e-02 6.365537643432617188e-02 -2.664012908935546875e-01 -5.664140917360782623e-03 -3.396000862121582031e-01 -2.600465528666973114e-02 -1.172279193997383118e-01 -7.768691331148147583e-02 1.515099853277206421e-01 2.939388342201709747e-02 1.692608743906021118e-02 8.328369259834289551e-02 -2.163676172494888306e-01 4.267568886280059814e-02 9.804748743772506714e-02 1.740050762891769409e-01 2.166041284799575806e-01 -5.217643082141876221e-02 -2.421017885208129883e-01 -3.605659008026123047e-01 -2.703062593936920166e-01 -1.052260026335716248e-01 7.977054268121719360e-02 -2.843738198280334473e-01 -1.287526339292526245e-01 1.783415228128433228e-01 -1.100689359009265900e-02 1.164416745305061340e-01 -4.116861522197723389e-01 3.887097164988517761e-02 -4.932821393013000488e-01 6.746575818397104740e-04 4.700974524021148682e-01 -3.630423843860626221e-01 9.178993850946426392e-02 -5.204494595527648926e-01 -2.204988598823547363e-01 3.591600060462951660e-01 2.372203022241592407e-01 3.086995184421539307e-01 1.798240095376968384e-01 -7.515284419059753418e-02 -1.430423110723495483e-01 -1.017385646700859070e-01 3.598084449768066406e-01 2.011317610740661621e-01 -1.373282909393310547e+00 -1.113569140434265137e+00 -3.435091972351074219e+00 2.738739131018519402e-03 7.335141897201538086e-01 2.045127630233764648e+00 9.292965531349182129e-01 1.627341389656066895e+00 1.355739235877990723e+00 -1.330278992652893066e+00 1.625377416610717773e+00 4.047184586524963379e-01 -2.876848578453063965e-01 -1.040480256080627441e+00 1.796504497528076172e+00 -2.031566143035888672e+00 -2.221639007329940796e-01 -9.477595686912536621e-01 1.055741310119628906e+00 -1.975425481796264648e+00 -1.663915365934371948e-01 -6.853784918785095215e-01 -3.284795284271240234e-01 8.257036805152893066e-01 -1.079344004392623901e-01 1.111052393913269043e+00 2.438531965017318726e-01 -1.437221646308898926e+00 -5.466814041137695312e-01 -1.406721115112304688e+00 1.221582651138305664e+00 -9.211919307708740234e-01 -2.520524561405181885e-01 -7.652323842048645020e-01 -8.195886015892028809e-01 -6.369934678077697754e-01 -5.749100446701049805e-01 -4.135902523994445801e-01 2.911656498908996582e-01 -2.509011626243591309e-01 -9.157503843307495117e-01 -1.780545115470886230e+00 -8.397306203842163086e-01 1.156262755393981934e+00 -7.968991398811340332e-01 -5.429069995880126953e-01 9.402061998844146729e-02 4.970575273036956787e-01 1.481470346450805664e+00 7.753126025199890137e-01 6.867257952690124512e-01 -1.537041068077087402e+00 2.372069209814071655e-01 -7.979964613914489746e-01 1.303193092346191406e+00 -2.658007144927978516e+00 -6.913691759109497070e-01 -4.215786978602409363e-02 -3.573665142059326172e+00 6.096461415290832520e-01 3.370065212249755859e+00 1.110309481620788574e+00 8.067515492439270020e-01 -1.213340759277343750e+00 1.987045884132385254e+00 -1.337478160858154297e+00 -3.558335006237030029e-01 -1.046938419342041016e+00 5.820515379309654236e-02 -1.618803620338439941e+00 -2.900533974170684814e-01 1.126626655459403992e-01 1.575818955898284912e-01 1.635761737823486328e+00 -5.444496870040893555e-01 2.482775598764419556e-01 6.546564102172851562e-01 1.567193984985351562e+00 9.237362742424011230e-01 1.296877503395080566e+00 -5.433770418167114258e-01 1.455262064933776855e+00 8.886350691318511963e-02 2.653856873512268066e-01 2.019392967224121094e+00 -1.573643833398818970e-01 -1.857738971710205078e+00 -1.688567101955413818e-01 -4.392251968383789062e-01 -7.894562482833862305e-01 -6.589301228523254395e-01 -2.086938381195068359e+00 -1.006156086921691895e+00 1.096809983253479004e+00 -1.908920854330062866e-01 -8.282732963562011719e-01 1.151458382606506348e+00 -9.457824230194091797e-01 -2.107469320297241211e+00 3.495533466339111328e-01 -9.314033389091491699e-01 7.429872155189514160e-01 9.387608170509338379e-01 3.028840541839599609e+00 -1.478292465209960938e+00 4.413293600082397461e-01 9.535965919494628906e-01 -2.262746334075927734e+00 3.918757438659667969e-01 1.408532619476318359e+00 -1.720566898584365845e-01 -1.297012090682983398e+00 6.011949777603149414e-01 1.394281148910522461e+00 -7.121031284332275391e-01 2.753723859786987305e-01 -5.070220828056335449e-01 1.473373413085937500e+00 1.070529222488403320e+00 -9.309744834899902344e-01 1.243774890899658203e+00 7.993761301040649414e-01 1.438109040260314941e+00 -1.332085609436035156e+00 -2.912715673446655273e-01 -7.510985136032104492e-01 1.026437520980834961e+00 2.173173189163208008e+00 -3.210382536053657532e-02 6.471472382545471191e-01 -1.540444254875183105e+00 -2.317399501800537109e+00 -9.442083835601806641e-01 -5.094878077507019043e-01 3.850988447666168213e-01 7.070945501327514648e-01 8.991935253143310547e-01 -3.531883656978607178e-01 -1.421249985694885254e+00 5.566726922988891602e-01 -4.378696978092193604e-01 1.029533028602600098e+00 -1.778128892183303833e-01 8.580579757690429688e-01 8.183595538139343262e-01 7.364200353622436523e-01 3.714550137519836426e-01 -6.326755285263061523e-01 -1.246666312217712402e+00 -1.856528043746948242e+00 9.294122457504272461e-01 2.388683706521987915e-01 2.158117443323135376e-01 5.655656382441520691e-02 -3.869598209857940674e-01 -6.644549369812011719e-01 1.214792490005493164e+00 -1.035654902458190918e+00 1.615093111991882324e+00 5.557902902364730835e-02 -5.254636406898498535e-01 3.851929605007171631e-01 9.588698744773864746e-01 1.097758393734693527e-02 1.359885454177856445e+00 -8.148767948150634766e-01 -9.048237204551696777e-01 8.535816073417663574e-01 -2.222348749637603760e-01 -5.622262954711914062e-01 1.306231617927551270e+00 9.284511208534240723e-02 3.374619483947753906e-01 -5.600295066833496094e-01 -5.284028872847557068e-02 1.908288300037384033e-01 1.778375655412673950e-01 1.915276646614074707e+00 -1.031599760055541992e+00 8.846307396888732910e-01 4.536125659942626953e-01 -7.222132086753845215e-01 1.255472302436828613e+00 -1.684772074222564697e-01 1.201765537261962891e+00 5.034909248352050781e-01 1.157011985778808594e+00 5.939115285873413086e-01 -5.188502073287963867e-01 -8.395146131515502930e-01 6.959004998207092285e-01 -4.019868373870849609e-01 -1.687466651201248169e-01 -1.359634518623352051e+00 -2.459224462509155273e-01 3.591060265898704529e-02 9.272000789642333984e-01 -2.502120733261108398e-01 -3.818962872028350830e-01 1.867942661046981812e-01 3.022357821464538574e-01 4.558355510234832764e-01 4.441632330417633057e-01 -2.556011080741882324e-01 3.447566926479339600e-01 -8.488945960998535156e-01 -1.147354990243911743e-01 -2.485434114933013916e-01 2.818798422813415527e-01 3.067557513713836670e-01 -1.748730838298797607e-01 -8.835457563400268555e-01 8.391566574573516846e-03 -1.834991425275802612e-01 1.939156949520111084e-01 1.880921572446823120e-01 -2.323747873306274414e-01 5.013651680201292038e-03 -8.716868162155151367e-01 -2.955879569053649902e-01 6.773062944412231445e-01 2.103409469127655029e-01 7.848190516233444214e-02 5.984613895416259766e-01 -7.677546739578247070e-01 -3.738343119621276855e-01 3.874138593673706055e-01 9.192568659782409668e-01 4.332895576953887939e-01 -1.082218587398529053e-01 4.847471117973327637e-01 8.326513171195983887e-01 5.405498743057250977e-01 -4.738842248916625977e-01 -5.048515647649765015e-02 6.833098530769348145e-01 1.438599228858947754e-01 -6.989951133728027344e-01 -1.385660171508789062e-01 -2.696393430233001709e-01 -3.673510253429412842e-01 4.969526231288909912e-01 -2.913008630275726318e-02 -1.798358261585235596e-01 8.750852942466735840e-02 -1.049421541392803192e-02 1.156951785087585449e+00 6.318286657333374023e-01 9.829570055007934570e-01 -5.398890376091003418e-01 4.797725081443786621e-01 6.793960928916931152e-01 4.198205769062042236e-01 1.072300195693969727e+00 5.319212079048156738e-01 9.621974229812622070e-01 -8.484753966331481934e-01 -3.010386824607849121e-01 2.160636931657791138e-01 1.248131766915321350e-01 -3.297367990016937256e-01 8.178268373012542725e-02 7.633873224258422852e-01 5.987359285354614258e-01 -1.129042506217956543e+00 -1.322081983089447021e-01 -5.167403444647789001e-02 3.706009387969970703e-01 -3.583270013332366943e-01 3.266751468181610107e-01 2.338804453611373901e-01 3.942421972751617432e-01 2.396018981933593750e+00 1.210511475801467896e-01 1.038015604019165039e+00 -1.902205199003219604e-01 2.720150351524353027e-01 2.710303068161010742e-01 9.695014357566833496e-02 2.119622677564620972e-01 -8.818215876817703247e-02 -4.680842757225036621e-01 -1.081770181655883789e+00 -6.298488974571228027e-01 1.189798638224601746e-01 -1.386334300041198730e+00 6.992542743682861328e-01 -6.674996018409729004e-02 2.955534867942333221e-02 -5.392940640449523926e-01 -7.719974517822265625e-01 -2.275498658418655396e-01 1.234252572059631348e+00 1.177236214280128479e-01 5.374706387519836426e-01 -3.179678618907928467e-01 1.560215592384338379e+00 1.985076963901519775e-01 2.419711947441101074e-01 1.604702770709991455e-01 4.970204830169677734e-01 -7.591090202331542969e-01 2.873228788375854492e-01 -2.303739488124847412e-01 1.386606812477111816e+00 7.171655893325805664e-01 -3.006252348423004150e-01 5.742245912551879883e-01 -2.290698885917663574e-02 -1.241534389555454254e-02 -1.476885080337524414e+00 -8.583206534385681152e-01 8.920854926109313965e-01 -4.865659177303314209e-01 -3.830214142799377441e-01 1.268083095550537109e+00 3.090349912643432617e+00 -4.804538488388061523e-01 -1.179442286491394043e+00 3.924100100994110107e-01 -8.948607444763183594e-01 3.427466154098510742e-01 -5.844128131866455078e-01 -2.843846194446086884e-02 3.504054248332977295e-02 -3.576929271221160889e-01 -2.924964427947998047e-01 3.921734690666198730e-01 -2.320924699306488037e-01 -4.936745166778564453e-01 7.815033197402954102e-01 5.150984525680541992e-01 1.407836437225341797e+00 -3.418677747249603271e-01 -1.086083412170410156e+00 4.067079424858093262e-01 -9.553962945938110352e-02 -1.479016900062561035e+00 2.849610745906829834e-01 -8.186187595129013062e-02 9.970482438802719116e-02 6.019827350974082947e-02 1.218523010611534119e-01 1.157228469848632812e+00 -1.309874374419450760e-02 3.892959356307983398e-01 -3.727380037307739258e-01 -4.688972607254981995e-02 -6.253679394721984863e-01 -1.032016754150390625e+00 -8.121694326400756836e-01 5.468901395797729492e-01 2.752402126789093018e-01 -7.503868639469146729e-02 2.936426699161529541e-01 -5.842863917350769043e-01 -9.703944921493530273e-01 -3.301770091056823730e-01 -3.391696810722351074e-01 9.591022729873657227e-01 -1.355862736701965332e+00 -2.380594909191131592e-01 1.516317486763000488e+00 1.500509381294250488e+00 -1.123487830162048340e+00 4.516389966011047363e-01 -2.207343578338623047e-01 4.902446269989013672e-01 -6.816221475601196289e-01 -3.249108493328094482e-01 -1.644661307334899902e+00 4.250774383544921875e-01 -2.381710767745971680e+00 1.884469836950302124e-01 9.272279143333435059e-01 1.779352575540542603e-01 5.275800824165344238e-01 1.989658772945404053e-01 -1.173333287239074707e+00 -1.204098582267761230e+00 2.502177357673645020e-01 -5.961555838584899902e-01 4.896980524063110352e-01 -2.914592623710632324e-01 5.288091301918029785e-02 -6.944961547851562500e-01 2.746915519237518311e-01 7.841556519269943237e-02 7.808888554573059082e-01 4.279802143573760986e-01 1.275061629712581635e-02 9.214017391204833984e-01 3.448204696178436279e-01 4.347962439060211182e-01 3.851050138473510742e-01 -5.964127182960510254e-01 4.800096154212951660e-01 -7.427552938461303711e-01 -1.553836584091186523e+00 -2.571833610534667969e+00 3.143415451049804688e-01 -1.988645642995834351e-01 1.083874329924583435e-02 -1.992188692092895508e-01 -4.775001853704452515e-02 -3.921961039304733276e-02 -9.035047888755798340e-01 -1.013158202171325684e+00 4.091551154851913452e-02 -9.878822565078735352e-01 1.661448001861572266e+00 -1.239076405763626099e-01 4.582678377628326416e-01 3.842180073261260986e-01 4.530289471149444580e-01 2.116753578186035156e+00 1.967012435197830200e-01 -7.674928903579711914e-01 7.636655569076538086e-01 -8.604048490524291992e-01 1.729632727801799774e-02 -1.381752133369445801e+00 5.556668341159820557e-02 1.051208496093750000e+00 7.358806580305099487e-02 1.736909002065658569e-01 -6.117169279605150223e-03 6.440495848655700684e-01 6.491419076919555664e-01 3.094631433486938477e-02 1.432269215583801270e-01 -1.992198973894119263e-01 2.186538428068161011e-01 4.512708187103271484e-01 -3.338973820209503174e-01 6.196745038032531738e-01 -1.179000064730644226e-01 6.531888246536254883e-02 -5.383268594741821289e-01 -7.649536728858947754e-01 1.856850832700729370e-01 -5.307025313377380371e-01 4.105213880538940430e-01 -2.635987997055053711e-01 -2.495034635066986084e-01 -3.279170095920562744e-01 2.801309823989868164e-01 -1.283165216445922852e+00 -4.228436574339866638e-02 1.290791630744934082e-01 1.035907939076423645e-01 3.935726881027221680e-01 3.884834349155426025e-01 6.939043402671813965e-01 2.919451892375946045e-01 7.698655873537063599e-02 -1.928389221429824829e-01 4.882679507136344910e-02 -1.062659621238708496e+00 4.994147419929504395e-01 -5.283031463623046875e-01 5.111410617828369141e-01 -1.241056248545646667e-01 -4.152126237750053406e-02 1.127181947231292725e-01 -2.677958458662033081e-02 8.531204462051391602e-01 9.809736907482147217e-02 -5.344120860099792480e-01 -2.712709307670593262e-01 7.484055161476135254e-01 -3.687913715839385986e-01 5.389742255210876465e-01 -3.649110496044158936e-01 1.022826552391052246e+00 2.398911565542221069e-01 1.723523885011672974e-01 7.128332555294036865e-02 -7.828618884086608887e-01 -5.570856332778930664e-01 3.172489702701568604e-01 -6.915394216775894165e-02 -3.041877746582031250e-01 6.592617928981781006e-02 -2.977373898029327393e-01 2.204541265964508057e-01 -7.325176894664764404e-02 -3.256919607520103455e-02 -3.599020540714263916e-01 4.846282899379730225e-01 -6.433039307594299316e-01 5.292770639061927795e-02 -4.507699906826019287e-01 -2.519424259662628174e-01 -1.314733773469924927e-01 3.818206787109375000e-01 -6.323577761650085449e-01 1.095652103424072266e+00 9.201254248619079590e-01 2.312610000371932983e-01 -4.709407985210418701e-01 -4.255947470664978027e-02 2.740590572357177734e-01 7.711592912673950195e-01 -2.953755140304565430e+00 5.323032736778259277e-01 -1.931495070457458496e-01 7.923620939254760742e-01 -3.005609512329101562e-01 -6.460817456245422363e-01 -1.074925899505615234e+00 -7.220867276191711426e-01 -7.312124967575073242e-01 6.839639544486999512e-01 2.715738117694854736e-01 7.967890501022338867e-01 -5.760542154312133789e-01 -7.260091900825500488e-01 7.684370279312133789e-01 -1.064900517463684082e+00 -1.167050004005432129e+00 7.298930287361145020e-01 1.317926943302154541e-01 -4.644004106521606445e-01 3.617146611213684082e-01 -2.722623646259307861e-01 4.140900969505310059e-01 -7.910822331905364990e-02 3.226991891860961914e-01 -2.511145174503326416e-02 -4.049420952796936035e-01 -4.334618151187896729e-01 9.060470461845397949e-01 -7.995617389678955078e-02