-6.241848437500000000e+04
-6.242153125000000000e+04
-6.239868750000000000e+04
-6.239109375000000000e+04
-6.239192578125000000e+04
-6.239296875000000000e+04
-6.240784375000000000e+04
-6.239594140625000000e+04
-6.239641015625000000e+04
-6.239678125000000000e+04
-6.239454687500000000e+04
-6.239542968750000000e+04
-6.239580468750000000e+04
-6.238798437500000000e+04
-6.238585546875000000e+04
-6.237967187500000000e+04
-6.238257421875000000e+04
-6.237551562500000000e+04
-6.237435937500000000e+04
-6.237124609375000000e+04
-6.237455468750000000e+04
-6.237659375000000000e+04
-6.237757421875000000e+04
-6.237796093750000000e+04
-6.237793359375000000e+04
-6.237730078125000000e+04
-6.237607421875000000e+04
-6.237881250000000000e+04
-6.237845703125000000e+04
-6.238049218750000000e+04
-6.238039453125000000e+04
-6.237740234375000000e+04
-6.237195312500000000e+04
-6.237325000000000000e+04
-6.237187500000000000e+04
-6.237401171875000000e+04
-6.239103515625000000e+04
-6.238001171875000000e+04
-6.237872265625000000e+04
-6.238041015625000000e+04
-6.237802343750000000e+04
-6.237580468750000000e+04
-6.237858593750000000e+04
-6.237966796875000000e+04
-6.237016015625000000e+04
-6.239782031250000000e+04
-6.239859765625000000e+04
-6.239748046875000000e+04
-6.239325000000000000e+04
-6.239310156250000000e+04
-6.239656250000000000e+04
-6.239400000000000000e+04
-6.241934765625000000e+04
-6.241790234375000000e+04
-6.239624218750000000e+04
-6.239764453125000000e+04
-6.239682421875000000e+04
-6.239853515625000000e+04
-6.239558984375000000e+04
-6.238847656250000000e+04
-6.238427343750000000e+04
-6.238294140625000000e+04
-6.238167578125000000e+04
-6.238412890625000000e+04
-6.237946484375000000e+04
-6.237965234375000000e+04
-6.237263671875000000e+04
-6.237242578125000000e+04
-6.237429296875000000e+04
-6.237569140625000000e+04
-6.237503906250000000e+04
-6.237257421875000000e+04
-6.237546093750000000e+04
-6.237337109375000000e+04
-6.237025390625000000e+04
-6.236980078125000000e+04
-6.236897265625000000e+04
-6.236975000000000000e+04
-6.237187500000000000e+04
-6.239469531250000000e+04
-6.238595312500000000e+04
-6.238275000000000000e+04
-6.238536718750000000e+04
-6.238008593750000000e+04
-6.238107031250000000e+04
-6.237894140625000000e+04
-6.237687890625000000e+04
-6.237830468750000000e+04
-6.237581250000000000e+04
-6.242498437500000000e+04
-6.242051171875000000e+04
-6.242093359375000000e+04
-6.239438671875000000e+04
-6.239390234375000000e+04
-6.239812109375000000e+04
-6.239969140625000000e+04
-6.239885937500000000e+04
-6.239634765625000000e+04
-6.239811328125000000e+04
-6.239860156250000000e+04
-6.239465625000000000e+04
-6.239466015625000000e+04
-6.239519921875000000e+04
-6.241676953125000000e+04
-6.241609765625000000e+04
-6.239894921875000000e+04
-6.239128906250000000e+04
-6.239090625000000000e+04
-6.238650000000000000e+04
-6.239144531250000000e+04
-6.238583984375000000e+04
-6.238229687500000000e+04
-6.238150781250000000e+04
-6.237882421875000000e+04
-6.237471484375000000e+04
-6.237203906250000000e+04
-6.237416015625000000e+04
-6.237290625000000000e+04
-6.237337500000000000e+04
-6.237800000000000000e+04
-6.237507031250000000e+04
-6.237383593750000000e+04
-6.239419140625000000e+04
-6.238801171875000000e+04
-6.239234765625000000e+04
-6.237883203125000000e+04
-6.237907031250000000e+04
-6.238011328125000000e+04
-6.237921875000000000e+04
-6.237702734375000000e+04
-6.237582812500000000e+04
-6.237813671875000000e+04
-6.241837109375000000e+04
-6.239952343750000000e+04
-6.240097265625000000e+04
-6.239948046875000000e+04
-6.239648046875000000e+04
-6.239134765625000000e+04
-6.239287890625000000e+04
-6.239400781250000000e+04
-6.239818750000000000e+04
-6.237634765625000000e+04
-6.237745312500000000e+04
-6.237525781250000000e+04
-6.237464062500000000e+04
-6.237268750000000000e+04
-6.237571484375000000e+04
-6.237516015625000000e+04
-6.237767187500000000e+04
-6.238436718750000000e+04
-6.238553515625000000e+04
-6.238506250000000000e+04
-6.238024609375000000e+04
-6.237778906250000000e+04
-6.237729687500000000e+04
-6.238012890625000000e+04
-6.238068359375000000e+04
-6.237919140625000000e+04
-6.237678125000000000e+04
-6.237248046875000000e+04
-6.237499609375000000e+04
-6.237410156250000000e+04
-6.237463671875000000e+04
-6.237507421875000000e+04
-6.237773828125000000e+04
-6.237610156250000000e+04
-6.237676562500000000e+04
-6.237402734375000000e+04
-6.237317578125000000e+04
-6.237472265625000000e+04
-6.240095703125000000e+04
-6.238709765625000000e+04
-6.239247265625000000e+04
-6.239405078125000000e+04
-6.239332812500000000e+04
-6.239335937500000000e+04
-6.239297656250000000e+04
-6.239125781250000000e+04
-6.239301953125000000e+04
-6.239892187500000000e+04
-6.239697656250000000e+04
-6.239842968750000000e+04
-6.239512890625000000e+04
-6.241216796875000000e+04
-6.238395312500000000e+04
-6.237748828125000000e+04
-6.237712500000000000e+04
-6.237905859375000000e+04
-6.237640234375000000e+04
-6.237833984375000000e+04
-6.237423437500000000e+04
-6.237248437500000000e+04
-6.237471875000000000e+04
-6.237789843750000000e+04
-6.237839843750000000e+04
-6.238571484375000000e+04
-6.238730859375000000e+04
-6.238000000000000000e+04
-6.237605078125000000e+04
-6.237600781250000000e+04
-6.237970703125000000e+04
-6.237922656250000000e+04
-6.237864843750000000e+04
-6.238221484375000000e+04
-6.237882421875000000e+04
-6.237767578125000000e+04
-6.237774609375000000e+04
-6.237902734375000000e+04
-6.237999609375000000e+04
-6.237485156250000000e+04
-6.238166796875000000e+04
-6.237805078125000000e+04
-6.238155468750000000e+04
-6.238069921875000000e+04
-6.239729296875000000e+04
-6.239547656250000000e+04
-6.239687890625000000e+04
-6.239172265625000000e+04
-6.239302343750000000e+04
-6.239016015625000000e+04
-6.239225390625000000e+04
-6.239684375000000000e+04
-6.239826953125000000e+04
-6.238989062500000000e+04
-6.239699218750000000e+04
-6.238762500000000000e+04
-6.238267187500000000e+04
-6.238386328125000000e+04
-6.237960156250000000e+04
-6.237641015625000000e+04
-6.237762500000000000e+04
-6.238272656250000000e+04
-6.238051953125000000e+04
-6.238010156250000000e+04
-6.237460937500000000e+04
-6.237457031250000000e+04
-6.237805468750000000e+04
-6.238067187500000000e+04
-6.238386718750000000e+04
-6.238162500000000000e+04
-6.237899218750000000e+04
-6.237632812500000000e+04
-6.237350390625000000e+04
-6.237410156250000000e+04
-6.240143359375000000e+04
-6.238279687500000000e+04
-6.238376953125000000e+04
-6.237649218750000000e+04
-6.237905859375000000e+04
-6.237762890625000000e+04
-6.238046484375000000e+04
-6.237615625000000000e+04
-6.238537109375000000e+04
-6.237949218750000000e+04
-6.238032031250000000e+04
-6.238049218750000000e+04
-6.237806640625000000e+04
-6.237783203125000000e+04
-6.237269531250000000e+04
-6.241970312500000000e+04
-6.239351171875000000e+04
-6.239716406250000000e+04
-6.239213281250000000e+04
-6.240912500000000000e+04
-6.240520312500000000e+04
-6.239542968750000000e+04
-6.239608593750000000e+04
-6.239635156250000000e+04
-6.239428125000000000e+04
-6.239689843750000000e+04
-6.239405078125000000e+04
-6.239391406250000000e+04
-6.239569531250000000e+04
-6.240157031250000000e+04
-6.239730859375000000e+04
-6.239546093750000000e+04
-6.238142968750000000e+04
-6.238027734375000000e+04
-6.237863671875000000e+04
-6.237930078125000000e+04
-6.237852734375000000e+04
-6.237686718750000000e+04
-6.237591406250000000e+04
-6.237666015625000000e+04
-6.237319921875000000e+04
-6.237173046875000000e+04
-6.237164453125000000e+04
-6.237704687500000000e+04
-6.237702734375000000e+04
-6.237662890625000000e+04
-6.237905859375000000e+04
-6.237748437500000000e+04
-6.237279687500000000e+04
-6.237308203125000000e+04
-6.237146093750000000e+04
-6.237066796875000000e+04
-6.237262500000000000e+04
-6.237066015625000000e+04
-6.237082812500000000e+04
-6.237253125000000000e+04
-6.239182421875000000e+04
-6.238582812500000000e+04
-6.238607812500000000e+04
-6.238396093750000000e+04
-6.238210156250000000e+04
-6.237762500000000000e+04
-6.238249609375000000e+04
-6.238498046875000000e+04
-6.238603515625000000e+04
-6.238062890625000000e+04
-6.237756250000000000e+04
-6.238157812500000000e+04
-6.238231640625000000e+04
-6.238166406250000000e+04
-6.238100390625000000e+04
-6.238021484375000000e+04
-6.237922656250000000e+04
-6.238086718750000000e+04
-6.237423828125000000e+04
-6.237721875000000000e+04
-6.237802343750000000e+04
-6.237775390625000000e+04
-6.237969921875000000e+04
-6.241966406250000000e+04
-6.239244140625000000e+04
-6.239112890625000000e+04
-6.238991015625000000e+04
-6.238718750000000000e+04
-6.238842187500000000e+04
-6.239868359375000000e+04
-6.239347265625000000e+04
-6.239426953125000000e+04
-6.239350781250000000e+04
-6.239057031250000000e+04
-6.239107421875000000e+04
-6.239321875000000000e+04
-6.239099218750000000e+04
-6.238089453125000000e+04
-6.238029687500000000e+04
-6.238080468750000000e+04
-6.237721484375000000e+04
-6.237702734375000000e+04
-6.238021093750000000e+04
-6.237760546875000000e+04
-6.238174218750000000e+04
-6.237985546875000000e+04
-6.237091015625000000e+04
-6.236944531250000000e+04
-6.237575000000000000e+04
-6.237506640625000000e+04
-6.237255859375000000e+04
-6.237200000000000000e+04
-6.237512109375000000e+04
-6.237924609375000000e+04
-6.237935546875000000e+04
-6.237625000000000000e+04
-6.237250390625000000e+04
-6.237146484375000000e+04
-6.236896484375000000e+04
-6.237211328125000000e+04
-6.239160546875000000e+04
-6.238239843750000000e+04
-6.238192578125000000e+04
-6.237842578125000000e+04
-6.238166406250000000e+04
-6.238091015625000000e+04
-6.237938281250000000e+04
-6.237517968750000000e+04
-6.237634765625000000e+04
-6.237910546875000000e+04
-6.237839062500000000e+04
-6.237536328125000000e+04
-6.237991406250000000e+04
-6.237644140625000000e+04
-6.237820312500000000e+04
-6.237753125000000000e+04
-6.237740234375000000e+04
-6.237701953125000000e+04
-6.238319140625000000e+04
-6.237701171875000000e+04
-6.237681250000000000e+04
-6.238079296875000000e+04
-6.238361718750000000e+04
-6.238393359375000000e+04
-6.238005468750000000e+04
-6.238028906250000000e+04
-6.238487500000000000e+04
-6.238019140625000000e+04
-6.238300781250000000e+04
-6.238079296875000000e+04
-6.238167578125000000e+04
-6.238131250000000000e+04
-6.238253125000000000e+04
-6.241732421875000000e+04
-6.241676171875000000e+04
-6.242087890625000000e+04
-6.242001562500000000e+04
-6.241966796875000000e+04
-6.240156250000000000e+04
-6.240032812500000000e+04
-6.239454687500000000e+04
-6.239467968750000000e+04
-6.239986718750000000e+04
-6.239896484375000000e+04
-6.239559375000000000e+04
-6.239491796875000000e+04
-6.239792578125000000e+04
-6.239409375000000000e+04
-6.238835156250000000e+04
-6.239298437500000000e+04
-6.239299218750000000e+04
-6.239398437500000000e+04
-6.239656250000000000e+04
-6.239386328125000000e+04
-6.240982812500000000e+04
-6.239039062500000000e+04
-6.238611718750000000e+04
-6.238800781250000000e+04
-6.238510546875000000e+04
-6.238718359375000000e+04
-6.238464453125000000e+04
-6.238091015625000000e+04
-6.238085937500000000e+04
-6.237889062500000000e+04
-6.238385546875000000e+04
-6.238246875000000000e+04
-6.237611328125000000e+04
-6.237651953125000000e+04
-6.238395312500000000e+04
-6.238034375000000000e+04
-6.237934375000000000e+04
-6.237823437500000000e+04
-6.238298828125000000e+04
-6.237898828125000000e+04
-6.237940625000000000e+04
-6.238119140625000000e+04
-6.237998046875000000e+04
-6.237911328125000000e+04
-6.238034375000000000e+04
-6.237748046875000000e+04
-6.237851171875000000e+04
-6.237926171875000000e+04
-6.237934375000000000e+04
-6.237975781250000000e+04
-6.237256640625000000e+04
-6.236924609375000000e+04
-6.237646093750000000e+04
-6.237823046875000000e+04
-6.238106250000000000e+04
-6.242146093750000000e+04
-6.239974609375000000e+04
-6.240059375000000000e+04
-6.239668750000000000e+04
-6.239645312500000000e+04
-6.239765234375000000e+04
-6.239171875000000000e+04
-6.239225000000000000e+04
-6.238875390625000000e+04
-6.239572265625000000e+04
-6.239148828125000000e+04
-6.239307812500000000e+04
-6.238664453125000000e+04
-6.240851171875000000e+04
-6.239600390625000000e+04
-6.239915625000000000e+04
-6.237853906250000000e+04
-6.238108984375000000e+04
-6.238449609375000000e+04
-6.238039062500000000e+04
-6.237469531250000000e+04
-6.238048437500000000e+04
-6.237227734375000000e+04
-6.237228515625000000e+04
-6.237689843750000000e+04
-6.238025000000000000e+04
-6.238058984375000000e+04
-6.237921484375000000e+04
-6.237742968750000000e+04
-6.237849218750000000e+04
-6.237616406250000000e+04
-6.237212109375000000e+04
-6.237907812500000000e+04
-6.237534375000000000e+04
-6.237524609375000000e+04
-6.237962109375000000e+04
-6.238187109375000000e+04
-6.238527734375000000e+04
-6.238569140625000000e+04
-6.238340234375000000e+04
-6.238391406250000000e+04
-6.238330468750000000e+04
-6.238045703125000000e+04
-6.238223046875000000e+04
-6.238262500000000000e+04
-6.238034765625000000e+04
-6.237975390625000000e+04
-6.237902734375000000e+04
-6.237924609375000000e+04
-6.238417187500000000e+04
-6.238458984375000000e+04
-6.237834375000000000e+04
-6.238093359375000000e+04
-6.237956640625000000e+04
-6.237912890625000000e+04
-6.238184375000000000e+04
-6.238241796875000000e+04
-6.238044921875000000e+04
-6.237783203125000000e+04
-6.237602343750000000e+04
-6.237576171875000000e+04
-6.237608203125000000e+04
-6.237940234375000000e+04
-6.237736328125000000e+04
-6.239839453125000000e+04
-6.239878125000000000e+04
-6.240010546875000000e+04
-6.239942187500000000e+04
-6.240170312500000000e+04
-6.239505859375000000e+04
-6.239914843750000000e+04
-6.239879296875000000e+04
-6.239817187500000000e+04
-6.239635937500000000e+04
-6.239622656250000000e+04
-6.239535937500000000e+04
-6.239510156250000000e+04
-6.239668750000000000e+04
-6.239433984375000000e+04
-6.239469921875000000e+04
-6.239075000000000000e+04
-6.238909375000000000e+04
-6.239499218750000000e+04
-6.239152734375000000e+04
-6.239042968750000000e+04
-6.239114453125000000e+04
-6.239990625000000000e+04
-6.239682421875000000e+04
-6.239808984375000000e+04
-6.239264453125000000e+04
-6.239652343750000000e+04
-6.239464062500000000e+04
-6.239127734375000000e+04
-6.239278515625000000e+04
-6.239007031250000000e+04
-6.239130859375000000e+04
-6.239138281250000000e+04
-6.239254296875000000e+04
-6.238181640625000000e+04
-6.238581250000000000e+04
-6.238398046875000000e+04
-6.237678906250000000e+04
-6.237567968750000000e+04
-6.237758984375000000e+04
-6.237919140625000000e+04
-6.238117578125000000e+04
-6.237794531250000000e+04
-6.237641015625000000e+04
-6.237985937500000000e+04
-6.237442187500000000e+04
-6.237585546875000000e+04
-6.237933203125000000e+04
-6.238033984375000000e+04
-6.238077734375000000e+04
-6.237865234375000000e+04
-6.237486718750000000e+04
-6.238254296875000000e+04
-6.237823828125000000e+04
-6.237868359375000000e+04
-6.237195312500000000e+04
-6.237800000000000000e+04
-6.237575781250000000e+04
-6.237989843750000000e+04
-6.237918359375000000e+04
-6.237738671875000000e+04
-6.237266796875000000e+04
-6.237591015625000000e+04
-6.237912500000000000e+04
-6.237719531250000000e+04
-6.237282421875000000e+04
