-2.960294342041015625e+01 2.918069839477539062e+00 2.858211040496826172e+00 2.918069839477539062e+00 -4.902896499633789062e+01 -1.157748985290527344e+01 2.858211040496826172e+00 -1.157748985290527344e+01 -4.451153182983398438e+01
-3.162093734741210938e+01 1.633952903747558594e+01 4.090969085693359375e+00 1.633952903747558594e+01 -7.670586109161376953e+00 1.091947364807128906e+01 4.090969085693359375e+00 1.091947364807128906e+01 -4.725973510742187500e+01
-2.681180000305175781e+01 1.290623474121093750e+01 -5.463296890258789062e+00 1.290623474121093750e+01 -4.879125976562500000e+01 -1.993614578247070312e+01 -5.463296890258789062e+00 -1.993614578247070312e+01 -4.118383789062500000e+01
-1.881895828247070312e+01 2.714283227920532227e+00 5.725173950195312500e+00 2.714283227920532227e+00 -4.296821975708007812e+01 4.853584766387939453e+00 5.725173950195312500e+00 4.853584766387939453e+00 -4.085633087158203125e+01
-4.053793716430664062e+01 3.509152889251708984e+00 -1.713121652603149414e+00 3.509152889251708984e+00 -5.151183700561523438e+01 -6.073042869567871094e+00 -1.713121652603149414e+00 -6.073042869567871094e+00 -5.066708755493164062e+01
-1.273355293273925781e+01 -7.797522544860839844e+00 4.174906253814697266e+00 -7.797522544860839844e+00 -4.678498458862304688e+01 4.150101184844970703e+00 4.174906253814697266e+00 4.150101184844970703e+00 -3.444826507568359375e+01
-2.855184745788574219e+01 2.513725852966308594e+01 -1.131813335418701172e+01 2.513725852966308594e+01 -3.089039230346679688e+01 -1.130015182495117188e+01 -1.131813335418701172e+01 -1.130015182495117188e+01 -3.805238723754882812e+01
-5.232395172119140625e+01 1.652429771423339844e+01 -6.151908874511718750e+00 1.652429771423339844e+01 -5.830390548706054688e+01 -1.327540111541748047e+01 -6.151908874511718750e+00 -1.327540111541748047e+01 -4.457022857666015625e+01
-4.565142822265625000e+01 -4.487609267234802246e-01 1.115469074249267578e+01 -4.487609267234802246e-01 -9.650334930419921875e+01 -4.093760013580322266e+00 1.115469074249267578e+01 -4.093760013580322266e+00 -6.061565780639648438e+01
-3.821218109130859375e+01 7.770804882049560547e+00 8.208003044128417969e-01 7.770804882049560547e+00 -5.355760955810546875e+01 -2.084677457809448242e+00 8.208003044128417969e-01 -2.084677457809448242e+00 -4.383503341674804688e+01
-5.885802841186523438e+01 8.896151542663574219e+00 8.055261611938476562e+00 8.896151542663574219e+00 -4.306732177734375000e+01 -1.597163528203964233e-01 8.055261611938476562e+00 -1.597163528203964233e-01 -2.010707664489746094e+01
-6.757635498046875000e+01 4.117428302764892578e+00 -1.798432350158691406e+01 4.117428302764892578e+00 -3.654739761352539062e+01 4.061764851212501526e-02 -1.798432350158691406e+01 4.061764851212501526e-02 -5.198939895629882812e+01
-3.063565063476562500e+01 7.751185894012451172e+00 -1.356572723388671875e+01 7.751185894012451172e+00 -5.347167205810546875e+01 5.922859668731689453e+00 -1.356572723388671875e+01 5.922859668731689453e+00 -4.877966308593750000e+01
-6.171472549438476562e+01 -3.923533916473388672e+00 6.852932929992675781e+00 -3.923533916473388672e+00 -4.961774063110351562e+01 3.490445137023925781e+00 6.852932929992675781e+00 3.490445137023925781e+00 -6.563420104980468750e+01
-4.335223388671875000e+01 -1.355789661407470703e+01 1.793906974792480469e+01 -1.355789661407470703e+01 -6.653863525390625000e+01 1.781916618347167969e+01 1.793906974792480469e+01 1.781916618347167969e+01 -4.773725509643554688e+01
-3.976087188720703125e+01 1.145952987670898438e+01 1.020766854286193848e+00 1.145952987670898438e+01 -7.234693145751953125e+01 4.424293994903564453e+00 1.020766854286193848e+00 4.424293994903564453e+00 -6.399837112426757812e+01
-6.685328960418701172e+00 -2.283809089660644531e+01 1.375609111785888672e+01 -2.283809089660644531e+01 -5.656755065917968750e+01 -7.818928241729736328e+00 1.375609111785888672e+01 -7.818928241729736328e+00 -4.143497467041015625e+01
-4.563028335571289062e+01 1.090137958526611328e+01 -1.349346160888671875e+01 1.090137958526611328e+01 -2.528305435180664062e+01 -2.179142761230468750e+01 -1.349346160888671875e+01 -2.179142761230468750e+01 -2.806258583068847656e+01
-4.169310760498046875e+01 -4.996701702475547791e-02 -1.826081156730651855e+00 -4.996701702475547791e-02 -7.319927215576171875e+01 -1.007633399963378906e+01 -1.826081156730651855e+00 -1.007633399963378906e+01 -7.635566711425781250e+01
-6.983383941650390625e+01 1.004098987579345703e+01 -1.106671142578125000e+01 1.004098987579345703e+01 -5.879119110107421875e+01 -1.183391189575195312e+01 -1.106671142578125000e+01 -1.183391189575195312e+01 -7.514330291748046875e+01
-1.745559120178222656e+01 6.095168113708496094e+00 -8.485569953918457031e+00 6.095168113708496094e+00 -6.434524536132812500e+01 -1.309446620941162109e+01 -8.485569953918457031e+00 -1.309446620941162109e+01 -6.803295898437500000e+01
-5.145892333984375000e+01 -1.628488540649414062e+01 8.116369247436523438e+00 -1.628488540649414062e+01 -7.984674835205078125e+01 -7.251010417938232422e+00 8.116369247436523438e+00 -7.251010417938232422e+00 -4.379011154174804688e+01
-7.916116333007812500e+01 2.054719209671020508e+00 1.002939319610595703e+01 2.054719209671020508e+00 -6.025187683105468750e+01 -3.435703039169311523e+00 1.002939319610595703e+01 -3.435703039169311523e+00 -8.126868438720703125e+01
-7.786418914794921875e+01 -4.916112899780273438e+00 -7.969169616699218750e+00 -4.916112899780273438e+00 -5.437561798095703125e+01 1.482765579223632812e+01 -7.969169616699218750e+00 1.482765579223632812e+01 -7.044989013671875000e+01
-6.769371795654296875e+01 -4.998933792114257812e+00 1.001207542419433594e+01 -4.998933792114257812e+00 -5.279978179931640625e+01 -1.048060703277587891e+01 1.001207542419433594e+01 -1.048060703277587891e+01 -6.880771636962890625e+01
-5.941041946411132812e+01 -7.718635559082031250e+00 -2.000247573852539062e+01 -7.718635559082031250e+00 -6.912729644775390625e+01 -4.657752037048339844e+00 -2.000247573852539062e+01 -4.657752037048339844e+00 -6.192210769653320312e+01
-4.260067749023437500e+01 1.252972698211669922e+01 -5.617753863334655762e-01 1.252972698211669922e+01 -4.475670623779296875e+01 -5.026167392730712891e+00 -5.617753863334655762e-01 -5.026167392730712891e+00 -2.722887229919433594e+01
-7.890930938720703125e+01 -1.520963573455810547e+01 -2.469049096107482910e-01 -1.520963573455810547e+01 -6.711389923095703125e+01 -3.482087612152099609e+00 -2.469049096107482910e-01 -3.482087612152099609e+00 -7.056738281250000000e+01
-5.424905014038085938e+01 6.866111755371093750e+00 -1.021612930297851562e+01 6.866111755371093750e+00 -5.675431442260742188e+01 1.733582305908203125e+01 -1.021612930297851562e+01 1.733582305908203125e+01 -7.391977691650390625e+01
-7.957055664062500000e+01 -9.664170265197753906e+00 9.721755981445312500e+00 -9.664170265197753906e+00 -7.032603454589843750e+01 -7.010243892669677734e+00 9.721755981445312500e+00 -7.010243892669677734e+00 -6.508650207519531250e+01
-2.596109962463378906e+01 6.814876079559326172e+00 -1.276647853851318359e+01 6.814876079559326172e+00 -2.367351150512695312e+01 1.442661762237548828e+00 -1.276647853851318359e+01 1.442661762237548828e+00 -4.787471771240234375e+01
-5.470740509033203125e+01 -1.106226205825805664e+00 6.268193244934082031e+00 -1.106226205825805664e+00 -4.014794158935546875e+01 -9.727787017822265625e+00 6.268193244934082031e+00 -9.727787017822265625e+00 -5.889932250976562500e+01
-6.620159149169921875e+01 7.018232345581054688e+00 -1.603257179260253906e+01 7.018232345581054688e+00 -1.671413612365722656e+01 2.385510635375976562e+01 -1.603257179260253906e+01 2.385510635375976562e+01 -3.986111831665039062e+01
-5.682767868041992188e+01 -1.063828659057617188e+01 -2.179905891418457031e+01 -1.063828659057617188e+01 -3.978909683227539062e+01 -1.772780609130859375e+01 -2.179905891418457031e+01 -1.772780609130859375e+01 -4.076189422607421875e+01
-9.441281127929687500e+01 -4.673622250556945801e-01 -3.744517862796783447e-01 -4.673622250556945801e-01 -5.296878051757812500e+01 4.513012409210205078e+00 -3.744517862796783447e-01 4.513012409210205078e+00 -5.386054611206054688e+01
-7.265219116210937500e+01 4.161178588867187500e+00 -1.095196914672851562e+01 4.161178588867187500e+00 -6.155465698242187500e+01 -2.815342903137207031e+01 -1.095196914672851562e+01 -2.815342903137207031e+01 -5.018501663208007812e+01
-6.015257263183593750e+01 1.574304199218750000e+01 -6.948280811309814453e+00 1.574304199218750000e+01 -5.840664672851562500e+01 -1.094241237640380859e+01 -6.948280811309814453e+00 -1.094241237640380859e+01 -3.031062698364257812e+01
-3.807712173461914062e+01 -2.039533424377441406e+01 -3.825308561325073242e+00 -2.039533424377441406e+01 -3.710895919799804688e+01 8.074445724487304688e+00 -3.825308561325073242e+00 8.074445724487304688e+00 -7.068607330322265625e+01
-6.183087539672851562e+01 1.196628093719482422e+00 -2.328829467296600342e-01 1.196628093719482422e+00 -4.649860000610351562e+01 -4.384578168392181396e-01 -2.328829467296600342e-01 -4.384578168392181396e-01 -4.717175674438476562e+01
-5.547941970825195312e+01 -2.522321128845214844e+01 1.001040172576904297e+01 -2.522321128845214844e+01 -6.557780456542968750e+01 -1.678700804710388184e+00 1.001040172576904297e+01 -1.678700804710388184e+00 -7.607035064697265625e+01
-5.514231872558593750e+01 1.336435222625732422e+01 -7.524244785308837891e-01 1.336435222625732422e+01 -3.583226394653320312e+01 2.554066658020019531e+00 -7.524244785308837891e-01 2.554066658020019531e+00 -7.267668151855468750e+01
-1.835858726501464844e+01 3.178297996520996094e+00 1.607257080078125000e+01 3.178297996520996094e+00 -5.674516677856445312e+01 2.071603202819824219e+01 1.607257080078125000e+01 2.071603202819824219e+01 -4.808039474487304688e+01
-5.453820800781250000e+01 2.293891906738281250e+01 3.370140552520751953e+00 2.293891906738281250e+01 -4.910625076293945312e+01 -2.033303833007812500e+01 3.370140552520751953e+00 -2.033303833007812500e+01 -6.004554748535156250e+01
-7.130250549316406250e+01 3.639895248413085938e+01 7.812210559844970703e+00 3.639895248413085938e+01 -4.827845764160156250e+01 9.379852294921875000e+00 7.812210559844970703e+00 9.379852294921875000e+00 -5.960077285766601562e+01
-4.112512588500976562e+01 3.690516233444213867e+00 1.024443435668945312e+01 3.690516233444213867e+00 -6.433471679687500000e+01 -1.265706539154052734e+01 1.024443435668945312e+01 -1.265706539154052734e+01 -4.494316482543945312e+01
-6.114478302001953125e+01 1.318818759918212891e+01 -7.088449954986572266e+00 1.318818759918212891e+01 -4.835402679443359375e+01 1.334796047210693359e+01 -7.088449954986572266e+00 1.334796047210693359e+01 -5.116542053222656250e+01
-5.995155715942382812e+01 1.701634597778320312e+01 1.344788265228271484e+01 1.701634597778320312e+01 -4.684686279296875000e+01 -7.268716335296630859e+00 1.344788265228271484e+01 -7.268716335296630859e+00 -5.188056182861328125e+01
-3.924964141845703125e+01 6.420097351074218750e+00 1.982738685607910156e+01 6.420097351074218750e+00 -7.183668518066406250e+01 -5.373091697692871094e+00 1.982738685607910156e+01 -5.373091697692871094e+00 -5.197828674316406250e+01
-8.316463470458984375e+01 -3.709218978881835938e+00 -1.963643312454223633e+00 -3.709218978881835938e+00 -4.002486038208007812e+01 1.693548393249511719e+01 -1.963643312454223633e+00 1.693548393249511719e+01 -3.868918991088867188e+01
-4.050508117675781250e+01 -1.682016944885253906e+01 3.063705921173095703e+00 -1.682016944885253906e+01 -5.185663223266601562e+01 2.006469917297363281e+01 3.063705921173095703e+00 2.006469917297363281e+01 -5.018513107299804688e+01
-5.268578338623046875e+01 1.962950515747070312e+01 1.860418438911437988e+00 1.962950515747070312e+01 -4.839430618286132812e+01 -2.797279357910156250e+00 1.860418438911437988e+00 -2.797279357910156250e+00 -3.721040725708007812e+01
-3.598168182373046875e+01 4.026820659637451172e+00 3.553824186325073242e+00 4.026820659637451172e+00 -3.735643005371093750e+01 -1.176284313201904297e+01 3.553824186325073242e+00 -1.176284313201904297e+01 -3.543466186523437500e+01
-8.514388275146484375e+01 3.992706775665283203e+00 -3.750709533691406250e+00 3.992706775665283203e+00 -8.104339599609375000e+01 5.447273254394531250e+00 -3.750709533691406250e+00 5.447273254394531250e+00 -4.898157501220703125e+01
-4.707393646240234375e+01 -1.536923527717590332e+00 -6.781318783760070801e-01 -1.536923527717590332e+00 -6.833954620361328125e+01 -3.409804821014404297e+00 -6.781318783760070801e-01 -3.409804821014404297e+00 -6.428257751464843750e+01
-1.317237281799316406e+01 2.019216060638427734e+00 3.144570350646972656e+00 2.019216060638427734e+00 -4.971718978881835938e+01 -1.431910324096679688e+01 3.144570350646972656e+00 -1.431910324096679688e+01 -6.418505859375000000e+01
-6.637348937988281250e+01 2.262008190155029297e+00 -1.440258789062500000e+01 2.262008190155029297e+00 -4.451687622070312500e+01 -2.797279119491577148e+00 -1.440258789062500000e+01 -2.797279119491577148e+00 -4.842411804199218750e+01
-4.285091018676757812e+01 2.989485979080200195e+00 -6.992758750915527344e+00 2.989485979080200195e+00 -4.227512741088867188e+01 -7.541494369506835938e+00 -6.992758750915527344e+00 -7.541494369506835938e+00 -3.536616516113281250e+01
-1.567119598388671875e+01 6.343635559082031250e+00 6.440208435058593750e+00 6.343635559082031250e+00 -5.268891143798828125e+01 -4.823493480682373047e+00 6.440208435058593750e+00 -4.823493480682373047e+00 -2.779102516174316406e+01
-6.151290512084960938e+01 -5.654112339019775391e+00 9.285572052001953125e+00 -5.654112339019775391e+00 -4.091181564331054688e+01 7.062862396240234375e+00 9.285572052001953125e+00 7.062862396240234375e+00 -6.802385711669921875e+01
-2.268659400939941406e+01 8.830514907836914062e+00 2.644313573837280273e-01 8.830514907836914062e+00 -4.518662261962890625e+01 -2.844325542449951172e+00 2.644313573837280273e-01 -2.844325542449951172e+00 -2.273575210571289062e+01
-6.843598175048828125e+01 7.428863644599914551e-01 7.658427715301513672e+00 7.428863644599914551e-01 -7.457843780517578125e+01 -7.039641857147216797e+00 7.658427715301513672e+00 -7.039641857147216797e+00 -6.019918823242187500e+01
-6.054343032836914062e+01 1.310500049591064453e+01 8.329726219177246094e+00 1.310500049591064453e+01 -6.051536178588867188e+01 -7.278496265411376953e+00 8.329726219177246094e+00 -7.278496265411376953e+00 -5.166068267822265625e+01
-6.621100616455078125e+01 -1.161872768402099609e+01 -1.443745136260986328e+01 -1.161872768402099609e+01 -5.573916625976562500e+01 -9.063575267791748047e-01 -1.443745136260986328e+01 -9.063575267791748047e-01 -5.629647064208984375e+01
-4.985356140136718750e+01 -1.561939418315887451e-01 5.981475830078125000e+00 -1.561939418315887451e-01 -1.520482635498046875e+01 1.614338111877441406e+01 5.981475830078125000e+00 1.614338111877441406e+01 -5.856055068969726562e+01
-6.731896972656250000e+01 -5.846174955368041992e-01 -4.578975677490234375e+00 -5.846174955368041992e-01 -5.267085647583007812e+01 1.472168731689453125e+01 -4.578975677490234375e+00 1.472168731689453125e+01 -6.472104644775390625e+01
-7.842402648925781250e+01 -2.110242366790771484e+00 5.824078321456909180e-01 -2.110242366790771484e+00 -6.602059173583984375e+01 -2.664424657821655273e+00 5.824078321456909180e-01 -2.664424657821655273e+00 -5.499406433105468750e+01
-4.142936325073242188e+01 7.348400592803955078e+00 4.403965950012207031e+00 7.348400592803955078e+00 -2.876459693908691406e+01 1.343437862396240234e+01 4.403965950012207031e+00 1.343437862396240234e+01 -4.428329086303710938e+01
-4.319787216186523438e+01 9.853001594543457031e+00 7.843930244445800781e+00 9.853001594543457031e+00 -5.719963073730468750e+01 3.076426696777343750e+01 7.843930244445800781e+00 3.076426696777343750e+01 -4.429688262939453125e+01
-3.672046279907226562e+01 2.844174861907958984e+00 -6.457036018371582031e+00 2.844174861907958984e+00 -3.643569564819335938e+01 2.750102996826171875e+00 -6.457036018371582031e+00 2.750102996826171875e+00 -5.224022293090820312e+01
-5.593174743652343750e+01 -1.646631622314453125e+01 -1.167507410049438477e+00 -1.646631622314453125e+01 -5.828196716308593750e+01 1.233755469322204590e+00 -1.167507410049438477e+00 1.233755469322204590e+00 -3.085358619689941406e+01
-5.374837112426757812e+01 -1.425649929046630859e+01 9.018040657043457031e+00 -1.425649929046630859e+01 -6.562765502929687500e+01 -7.375131607055664062e+00 9.018040657043457031e+00 -7.375131607055664062e+00 -2.938871192932128906e+01
-3.786127853393554688e+01 2.335983085632324219e+01 -2.724495410919189453e+00 2.335983085632324219e+01 -3.717273712158203125e+01 -6.031835556030273438e+00 -2.724495410919189453e+00 -6.031835556030273438e+00 -5.778929138183593750e+01
-4.078911972045898438e+01 -8.106507301330566406e+00 -9.858860015869140625e+00 -8.106507301330566406e+00 -3.663117980957031250e+01 2.002373695373535156e+01 -9.858860015869140625e+00 2.002373695373535156e+01 -3.103734397888183594e+01
-5.203213882446289062e+01 -5.114621162414550781e+00 7.358191013336181641e+00 -5.114621162414550781e+00 -4.847468185424804688e+01 -4.602285861968994141e+00 7.358191013336181641e+00 -4.602285861968994141e+00 -6.945455169677734375e+01
-4.268057632446289062e+01 1.025545001029968262e+00 -6.920423984527587891e+00 1.025545001029968262e+00 -6.152510070800781250e+01 1.170438003540039062e+01 -6.920423984527587891e+00 1.170438003540039062e+01 -3.803071594238281250e+01
-4.834435272216796875e+01 -4.526173472404479980e-01 7.895668983459472656e+00 -4.526173472404479980e-01 -2.789464187622070312e+01 6.572356700897216797e+00 7.895668983459472656e+00 6.572356700897216797e+00 -5.230639266967773438e+01
-7.393574523925781250e+01 -6.044148921966552734e+00 1.392716407775878906e+01 -6.044148921966552734e+00 -4.336258316040039062e+01 -3.463120460510253906e+00 1.392716407775878906e+01 -3.463120460510253906e+00 -4.344311904907226562e+01
-5.579782867431640625e+01 6.265661716461181641e+00 -1.172884464263916016e+01 6.265661716461181641e+00 -4.368432235717773438e+01 5.590001583099365234e+00 -1.172884464263916016e+01 5.590001583099365234e+00 -6.027882385253906250e+01
-6.001809310913085938e+01 1.772014236450195312e+01 5.790801048278808594e+00 1.772014236450195312e+01 -5.405997085571289062e+01 -9.281609058380126953e-01 5.790801048278808594e+00 -9.281609058380126953e-01 -4.468347930908203125e+01
-3.127259254455566406e+01 1.791759300231933594e+01 -9.932725906372070312e+00 1.791759300231933594e+01 -4.893626785278320312e+01 -1.578745460510253906e+01 -9.932725906372070312e+00 -1.578745460510253906e+01 -4.636751937866210938e+01
-3.245131301879882812e+01 -1.212243080139160156e+00 -4.017173349857330322e-01 -1.212243080139160156e+00 -3.667031097412109375e+01 1.568695545196533203e+01 -4.017173349857330322e-01 1.568695545196533203e+01 -2.635878753662109375e+01
-4.519239425659179688e+01 -7.080792427062988281e+00 -6.887576103210449219e+00 -7.080792427062988281e+00 -4.769467163085937500e+01 5.152705192565917969e+00 -6.887576103210449219e+00 5.152705192565917969e+00 -2.706140899658203125e+01
-6.284193038940429688e+01 -2.725878953933715820e+00 -1.571500110626220703e+01 -2.725878953933715820e+00 -5.899423217773437500e+01 5.577181577682495117e-01 -1.571500110626220703e+01 5.577181577682495117e-01 -7.298288726806640625e+01
-3.268761062622070312e+01 1.402786374092102051e+00 -2.693346261978149414e+00 1.402786374092102051e+00 -6.191698074340820312e+01 -1.538113975524902344e+01 -2.693346261978149414e+00 -1.538113975524902344e+01 -6.904800415039062500e+01
-7.204800415039062500e+01 -4.585684239864349365e-01 -3.741739988327026367e-01 -4.585684239864349365e-01 -6.648809051513671875e+01 -6.771270751953125000e+00 -3.741739988327026367e-01 -6.771270751953125000e+00 -2.939163208007812500e+01
-6.735206604003906250e+01 -9.286784529685974121e-01 3.510427713394165039e+00 -9.286784529685974121e-01 -7.685354614257812500e+01 -1.751000642776489258e+00 3.510427713394165039e+00 -1.751000642776489258e+00 -6.790393066406250000e+01
-6.491310882568359375e+01 -5.372994899749755859e+00 3.248827695846557617e+00 -5.372994899749755859e+00 -6.818856811523437500e+01 9.340677261352539062e+00 3.248827695846557617e+00 9.340677261352539062e+00 -6.813610076904296875e+01
-5.000397491455078125e+01 6.115467548370361328e+00 -4.562730312347412109e+00 6.115467548370361328e+00 -3.558185958862304688e+01 6.161492347717285156e+00 -4.562730312347412109e+00 6.161492347717285156e+00 -9.102770996093750000e+01
-6.679897308349609375e+01 3.270406961441040039e+00 -1.442467093467712402e+00 3.270406961441040039e+00 -4.013857269287109375e+01 5.467288494110107422e+00 -1.442467093467712402e+00 5.467288494110107422e+00 -6.321837234497070312e+01
-5.160406875610351562e+01 -3.490576028823852539e+00 -2.791257619857788086e+00 -3.490576028823852539e+00 -4.372335052490234375e+01 2.429773211479187012e-01 -2.791257619857788086e+00 2.429773211479187012e-01 -2.513949584960937500e+01
-4.140445327758789062e+01 2.092122840881347656e+01 1.425059080123901367e+00 2.092122840881347656e+01 -5.759222412109375000e+01 8.320610046386718750e+00 1.425059080123901367e+00 8.320610046386718750e+00 -4.474218368530273438e+01
-5.019207763671875000e+01 1.483703613281250000e+00 1.886146366596221924e-01 1.483703613281250000e+00 -6.032050323486328125e+01 -2.535694122314453125e+00 1.886146366596221924e-01 -2.535694122314453125e+00 -5.491411972045898438e+01
-3.801166915893554688e+01 -1.580855488777160645e+00 -6.844899654388427734e-01 -1.580855488777160645e+00 -4.718154907226562500e+01 1.322798252105712891e+01 -6.844899654388427734e-01 1.322798252105712891e+01 -6.790045166015625000e+01
-5.177935791015625000e+01 5.954185962677001953e+00 -2.339971351623535156e+01 5.954185962677001953e+00 -8.043469238281250000e+01 2.023622512817382812e+01 -2.339971351623535156e+01 2.023622512817382812e+01 -2.984770393371582031e+01
-3.969224166870117188e+01 -8.389856338500976562e+00 -6.504216194152832031e+00 -8.389856338500976562e+00 -2.507081604003906250e+01 -1.015039539337158203e+01 -6.504216194152832031e+00 -1.015039539337158203e+01 -3.733524322509765625e+01
-1.176226711273193359e+01 -4.569038867950439453e+00 -1.444617176055908203e+01 -4.569038867950439453e+00 -2.270634651184082031e+01 1.706585049629211426e+00 -1.444617176055908203e+01 1.706585049629211426e+00 -3.563397979736328125e+01
-2.482967376708984375e+01 -3.404533490538597107e-02 -4.584537506103515625e+00 -3.404533490538597107e-02 -3.857049560546875000e+01 -1.496999502182006836e+00 -4.584537506103515625e+00 -1.496999502182006836e+00 -3.516727828979492188e+01
-5.039006042480468750e+01 -2.288794994354248047e+00 -9.200829267501831055e-01 -2.288794994354248047e+00 -4.735490036010742188e+01 -1.934248328208923340e+00 -9.200829267501831055e-01 -1.934248328208923340e+00 -4.049816131591796875e+01
-4.696640777587890625e+01 1.011001968383789062e+01 -2.759220600128173828e+00 1.011001968383789062e+01 -4.547782897949218750e+01 -3.724993705749511719e+00 -2.759220600128173828e+00 -3.724993705749511719e+00 -5.767910003662109375e+01
-6.770650482177734375e+01 -1.531937360763549805e+00 -9.570824623107910156e+00 -1.531937360763549805e+00 -3.956951904296875000e+01 1.590429306030273438e+00 -9.570824623107910156e+00 1.590429306030273438e+00 -7.082415771484375000e+01
-8.069588470458984375e+01 -6.963938474655151367e-01 1.435880661010742188e+01 -6.963938474655151367e-01 -6.724262237548828125e+01 6.460126042366027832e-01 1.435880661010742188e+01 6.460126042366027832e-01 -6.913167572021484375e+01
-5.620215606689453125e+01 6.412852764129638672e+00 -3.164971590042114258e+00 6.412852764129638672e+00 -4.683523941040039062e+01 -3.572016239166259766e+00 -3.164971590042114258e+00 -3.572016239166259766e+00 -7.222679901123046875e+01
-5.338275527954101562e+01 3.898021459579467773e+00 3.662696361541748047e+00 3.898021459579467773e+00 -4.787097549438476562e+01 -6.959272384643554688e+00 3.662696361541748047e+00 -6.959272384643554688e+00 -2.939344787597656250e+01
-5.015887069702148438e+01 -1.556508302688598633e+00 -7.653613090515136719e+00 -1.556508302688598633e+00 -6.553470611572265625e+01 1.633005261421203613e+00 -7.653613090515136719e+00 1.633005261421203613e+00 -4.359018325805664062e+01
-4.704353713989257812e+01 1.492983531951904297e+01 -6.690347194671630859e-01 1.492983531951904297e+01 -3.199357604980468750e+01 8.414979934692382812e+00 -6.690347194671630859e-01 8.414979934692382812e+00 -4.435675048828125000e+01
-6.265744018554687500e+01 2.814994096755981445e+00 1.936300516128540039e+00 2.814994096755981445e+00 -4.967106628417968750e+01 9.414428710937500000e+00 1.936300516128540039e+00 9.414428710937500000e+00 -2.203990936279296875e+01
-7.410410308837890625e+01 -6.075496196746826172e+00 -2.846192598342895508e+00 -6.075496196746826172e+00 -7.423748779296875000e+01 -1.286529064178466797e+01 -2.846192598342895508e+00 -1.286529064178466797e+01 -5.692036819458007812e+01
-6.743464660644531250e+01 -1.814091682434082031e+01 -2.087087869644165039e+00 -1.814091682434082031e+01 -5.298881530761718750e+01 1.066895866394042969e+01 -2.087087869644165039e+00 1.066895866394042969e+01 -6.187506484985351562e+01
-5.803116226196289062e+01 1.810487747192382812e+00 -1.924990844726562500e+01 1.810487747192382812e+00 -5.975612640380859375e+01 -5.175170421600341797e+00 -1.924990844726562500e+01 -5.175170421600341797e+00 -1.775422286987304688e+01
-5.237049102783203125e+01 1.317882442474365234e+01 -4.946382522583007812e+00 1.317882442474365234e+01 -5.114233779907226562e+01 -4.626578807830810547e+00 -4.946382522583007812e+00 -4.626578807830810547e+00 -7.302437591552734375e+01
-6.827548217773437500e+01 -5.102998018264770508e-01 -1.441535949707031250e+01 -5.102998018264770508e-01 -6.754559326171875000e+01 -4.041631221771240234e+00 -1.441535949707031250e+01 -4.041631221771240234e+00 -5.310810852050781250e+01
-7.554946136474609375e+01 -5.214653491973876953e+00 -6.108715534210205078e+00 -5.214653491973876953e+00 -3.347251129150390625e+01 -1.258679866790771484e+01 -6.108715534210205078e+00 -1.258679866790771484e+01 -3.651126861572265625e+01
-4.629480743408203125e+01 -5.700938776135444641e-02 -5.028891563415527344e-01 -5.700938776135444641e-02 -2.265872764587402344e+01 -8.074954986572265625e+00 -5.028891563415527344e-01 -8.074954986572265625e+00 -6.133723449707031250e+01
-4.085935974121093750e+01 -7.707602977752685547e+00 -7.445887088775634766e+00 -7.707602977752685547e+00 -5.234158706665039062e+01 6.927810668945312500e+00 -7.445887088775634766e+00 6.927810668945312500e+00 -7.403012847900390625e+01
-4.638252639770507812e+01 1.538344740867614746e+00 -1.036740303039550781e+01 1.538344740867614746e+00 -6.997143554687500000e+01 4.250258922576904297e+00 -1.036740303039550781e+01 4.250258922576904297e+00 -5.673088073730468750e+01
-5.644213485717773438e+01 2.129177331924438477e+00 -1.507076454162597656e+01 2.129177331924438477e+00 -1.773013305664062500e+01 -5.709510803222656250e+00 -1.507076454162597656e+01 -5.709510803222656250e+00 -4.573134613037109375e+01
-5.144812011718750000e+01 8.167983055114746094e+00 -1.265972518920898438e+01 8.167983055114746094e+00 -4.736663055419921875e+01 -3.728371858596801758e-01 -1.265972518920898438e+01 -3.728371858596801758e-01 -3.729125595092773438e+01
-5.846837615966796875e+01 1.591463375091552734e+01 -9.416677474975585938e+00 1.591463375091552734e+01 -7.396449279785156250e+01 1.464304327964782715e+00 -9.416677474975585938e+00 1.464304327964782715e+00 -4.087414169311523438e+01
-5.143306732177734375e+01 8.309574723243713379e-01 1.948266792297363281e+01 8.309574723243713379e-01 -5.712981033325195312e+01 9.610980987548828125e+00 1.948266792297363281e+01 9.610980987548828125e+00 -5.813201904296875000e+01
-5.950191879272460938e+01 -7.963364124298095703e+00 5.242871284484863281e+00 -7.963364124298095703e+00 -8.088912963867187500e+01 3.505635023117065430e+00 5.242871284484863281e+00 3.505635023117065430e+00 -6.600398254394531250e+01
-3.317276000976562500e+01 1.008367252349853516e+01 -1.939186668395996094e+01 1.008367252349853516e+01 -4.401627731323242188e+01 -1.535884475708007812e+01 -1.939186668395996094e+01 -1.535884475708007812e+01 -4.177310466766357422e+00
-5.707567977905273438e+01 2.366386222839355469e+01 1.176335525512695312e+01 2.366386222839355469e+01 -4.512356948852539062e+01 8.602011680603027344e+00 1.176335525512695312e+01 8.602011680603027344e+00 -4.011141967773437500e+01
-6.264525222778320312e+01 -4.593732833862304688e+00 9.944251060485839844e+00 -4.593732833862304688e+00 -2.064412307739257812e+01 -2.198884582519531250e+01 9.944251060485839844e+00 -2.198884582519531250e+01 -2.816803359985351562e+01
-5.228445434570312500e+01 1.661899757385253906e+01 1.574317932128906250e+01 1.661899757385253906e+01 -7.595780944824218750e+01 -1.836276531219482422e+00 1.574317932128906250e+01 -1.836276531219482422e+00 -4.728105926513671875e+01
-4.420410156250000000e+01 1.672358214855194092e-01 -1.165035629272460938e+01 1.672358214855194092e-01 -2.136795234680175781e+01 1.593604683876037598e-01 -1.165035629272460938e+01 1.593604683876037598e-01 -3.825406646728515625e+01
-5.977371978759765625e+01 9.086216926574707031e+00 4.267704963684082031e+00 9.086216926574707031e+00 -7.084999847412109375e+01 2.719306707382202148e+00 4.267704963684082031e+00 2.719306707382202148e+00 -3.247618103027343750e+01
-7.324796295166015625e+01 8.035267829895019531e+00 -1.129469394683837891e+01 8.035267829895019531e+00 -5.306187820434570312e+01 -1.156460094451904297e+01 -1.129469394683837891e+01 -1.156460094451904297e+01 -4.123651123046875000e+01
-6.719143676757812500e+01 1.839823246002197266e+00 -7.748209953308105469e+00 1.839823246002197266e+00 -7.460445404052734375e+01 -1.351700305938720703e+00 -7.748209953308105469e+00 -1.351700305938720703e+00 -8.952929687500000000e+01
-2.816038703918457031e+01 -6.180102825164794922e+00 -1.418068218231201172e+01 -6.180102825164794922e+00 -5.528023910522460938e+01 1.866497993469238281e+01 -1.418068218231201172e+01 1.866497993469238281e+01 -2.328664207458496094e+01