-6.069317187500000000e+04
-6.067978515625000000e+04
-6.067833203125000000e+04
-6.067696875000000000e+04
-6.067662890625000000e+04
-6.067608593750000000e+04
-6.067743750000000000e+04
-6.067694531250000000e+04
-6.067595312500000000e+04
-6.067526171875000000e+04
-6.067612890625000000e+04
-6.067628125000000000e+04
-6.067686328125000000e+04
-6.067686718750000000e+04
-6.067648437500000000e+04
-6.067592968750000000e+04
-6.067597656250000000e+04
-6.067537890625000000e+04
-6.067577343750000000e+04
-6.067568750000000000e+04
-6.067596875000000000e+04
-6.067572265625000000e+04
-6.067574609375000000e+04
-6.067512109375000000e+04
-6.067633984375000000e+04
-6.067562890625000000e+04
-6.067607031250000000e+04
-6.067612109375000000e+04
-6.067684765625000000e+04
-6.067557421875000000e+04
-6.067689453125000000e+04
-6.067713281250000000e+04
-6.067555468750000000e+04
-6.067684765625000000e+04
-6.067577343750000000e+04
-6.067550390625000000e+04
-6.067596484375000000e+04
-6.067526171875000000e+04
-6.067664062500000000e+04
-6.067621484375000000e+04
-6.067623437500000000e+04
-6.067524609375000000e+04
-6.067685937500000000e+04
-6.067778125000000000e+04
-6.067589843750000000e+04
-6.067536718750000000e+04
-6.067421484375000000e+04
-6.067474609375000000e+04
-6.067690625000000000e+04
-6.069317187500000000e+04
-6.067151953125000000e+04
-6.067023437500000000e+04
-6.066768359375000000e+04
-6.066166796875000000e+04
-6.066201171875000000e+04
-6.066001562500000000e+04
-6.066189453125000000e+04
-6.066258593750000000e+04
-6.066438671875000000e+04
-6.066358593750000000e+04
-6.066057031250000000e+04
-6.065890234375000000e+04
-6.065973437500000000e+04
-6.066045312500000000e+04
-6.066074218750000000e+04
-6.066169531250000000e+04
-6.066067968750000000e+04
-6.065960156250000000e+04
-6.065979296875000000e+04
-6.066307812500000000e+04
-6.066137500000000000e+04
-6.066266796875000000e+04
-6.066090234375000000e+04
-6.065980468750000000e+04
-6.065826562500000000e+04
-6.066224218750000000e+04
-6.066220312500000000e+04
-6.066241796875000000e+04
-6.065852343750000000e+04
-6.065764062500000000e+04
-6.066180468750000000e+04
-6.066085937500000000e+04
-6.066329296875000000e+04
-6.066308593750000000e+04
-6.066073437500000000e+04
-6.065816015625000000e+04
-6.066024218750000000e+04
-6.066163671875000000e+04
-6.065892578125000000e+04
-6.066096875000000000e+04
-6.065862890625000000e+04
-6.066324218750000000e+04
-6.066182031250000000e+04
-6.066185156250000000e+04
-6.066005078125000000e+04
-6.065964062500000000e+04
-6.066073046875000000e+04
-6.069317187500000000e+04
-6.066760937500000000e+04
-6.066035156250000000e+04
-6.065592578125000000e+04
-6.064899218750000000e+04
-6.064293359375000000e+04
-6.063653515625000000e+04
-6.063946484375000000e+04
-6.063847265625000000e+04
-6.063896875000000000e+04
-6.064220312500000000e+04
-6.063876953125000000e+04
-6.063943359375000000e+04
-6.063849609375000000e+04
-6.063705859375000000e+04
-6.063873828125000000e+04
-6.064288671875000000e+04
-6.064366406250000000e+04
-6.064003515625000000e+04
-6.063782421875000000e+04
-6.063593359375000000e+04
-6.064282031250000000e+04
-6.064164453125000000e+04
-6.063876562500000000e+04
-6.063737890625000000e+04
-6.063623046875000000e+04
-6.064251953125000000e+04
-6.063801953125000000e+04
-6.064024609375000000e+04
-6.063817187500000000e+04
-6.063900000000000000e+04
-6.063895312500000000e+04
-6.063572265625000000e+04
-6.063807812500000000e+04
-6.063723046875000000e+04
-6.063744531250000000e+04
-6.064060156250000000e+04
-6.063673046875000000e+04
-6.063597265625000000e+04
-6.063987500000000000e+04
-6.063983984375000000e+04
-6.063919140625000000e+04
-6.063820312500000000e+04
-6.063441796875000000e+04
-6.063642187500000000e+04
-6.063700781250000000e+04
-6.069371093750000000e+04
-6.068099609375000000e+04
-6.067778515625000000e+04
-6.067689062500000000e+04
-6.067567187500000000e+04
-6.067567578125000000e+04
-6.067623828125000000e+04
-6.067753906250000000e+04
-6.067501171875000000e+04
-6.067683984375000000e+04
-6.067667187500000000e+04
-6.067713671875000000e+04
-6.067605468750000000e+04
-6.067492968750000000e+04
-6.067475781250000000e+04
-6.067621484375000000e+04
-6.067641406250000000e+04
-6.067625781250000000e+04
-6.067552343750000000e+04
-6.067516406250000000e+04
-6.067460156250000000e+04
-6.067411328125000000e+04
-6.067574218750000000e+04
-6.067647265625000000e+04
-6.067546093750000000e+04
-6.067526171875000000e+04
-6.067641406250000000e+04
-6.067551171875000000e+04
-6.067642968750000000e+04
-6.067548828125000000e+04
-6.067469140625000000e+04
-6.067394140625000000e+04
-6.067465625000000000e+04
-6.067536328125000000e+04
-6.067546875000000000e+04
-6.067577734375000000e+04
-6.067573828125000000e+04
-6.067445312500000000e+04
-6.067656640625000000e+04
-6.067559765625000000e+04
-6.067539843750000000e+04
-6.067496484375000000e+04
-6.067448046875000000e+04
-6.069371093750000000e+04
-6.067348437500000000e+04
-6.066973046875000000e+04
-6.066664843750000000e+04
-6.066282031250000000e+04
-6.066041796875000000e+04
-6.065804296875000000e+04
-6.065806640625000000e+04
-6.066014062500000000e+04
-6.066152343750000000e+04
-6.065986718750000000e+04
-6.065978906250000000e+04
-6.065743359375000000e+04
-6.065969921875000000e+04
-6.066050781250000000e+04
-6.066130468750000000e+04
-6.066085546875000000e+04
-6.065830859375000000e+04
-6.065875000000000000e+04
-6.065749218750000000e+04
-6.065656640625000000e+04
-6.065676953125000000e+04
-6.065803125000000000e+04
-6.065826562500000000e+04
-6.065883984375000000e+04
-6.065717968750000000e+04
-6.065836718750000000e+04
-6.065658203125000000e+04
-6.065880078125000000e+04
-6.065818750000000000e+04
-6.065760156250000000e+04
-6.066011718750000000e+04
-6.065914843750000000e+04
-6.065491406250000000e+04
-6.065670312500000000e+04
-6.065738671875000000e+04
-6.066034765625000000e+04
-6.065606250000000000e+04
-6.066108593750000000e+04
-6.065848437500000000e+04
-6.065959375000000000e+04
-6.065861718750000000e+04
-6.065677343750000000e+04
-6.066166406250000000e+04
-6.065887890625000000e+04
-6.066092578125000000e+04
-6.066142187500000000e+04
-6.066037890625000000e+04
-6.069371093750000000e+04
-6.066480859375000000e+04
-6.066007812500000000e+04
-6.065538671875000000e+04
-6.064938671875000000e+04
-6.064408593750000000e+04
-6.064097265625000000e+04
-6.063726953125000000e+04
-6.063994531250000000e+04
-6.064090234375000000e+04
-6.064169140625000000e+04
-6.064132421875000000e+04
-6.064075000000000000e+04
-6.063867578125000000e+04
-6.064007421875000000e+04
-6.064333593750000000e+04
-6.063953125000000000e+04
-6.063903906250000000e+04
-6.063509765625000000e+04
-6.063335546875000000e+04
-6.063413671875000000e+04
-6.063747656250000000e+04
-6.063728125000000000e+04
-6.063811718750000000e+04
-6.063522656250000000e+04
-6.063559375000000000e+04
-6.063619921875000000e+04
-6.063753906250000000e+04
-6.063788281250000000e+04
-6.063688281250000000e+04
-6.063547656250000000e+04
-6.063327734375000000e+04
-6.063592187500000000e+04
-6.063687109375000000e+04
-6.063835156250000000e+04
-6.063492187500000000e+04
-6.063157812500000000e+04
-6.063552343750000000e+04
-6.063525390625000000e+04
-6.063369140625000000e+04
-6.063506250000000000e+04
-6.063249218750000000e+04
-6.063504687500000000e+04
-6.069317968750000000e+04
-6.068043359375000000e+04
-6.067772265625000000e+04
-6.067765625000000000e+04
-6.067606250000000000e+04
-6.067555078125000000e+04
-6.067720312500000000e+04
-6.067559375000000000e+04
-6.067575390625000000e+04
-6.067513281250000000e+04
-6.067576171875000000e+04
-6.067562109375000000e+04
-6.067569140625000000e+04
-6.067528125000000000e+04
-6.067453515625000000e+04
-6.067464062500000000e+04
-6.067289453125000000e+04
-6.067424609375000000e+04
-6.067569921875000000e+04
-6.067442187500000000e+04
-6.067353906250000000e+04
-6.067261718750000000e+04
-6.067411718750000000e+04
-6.067437500000000000e+04
-6.067469140625000000e+04
-6.067514453125000000e+04
-6.067576562500000000e+04
-6.067378125000000000e+04
-6.067406640625000000e+04
-6.067381640625000000e+04
-6.067542968750000000e+04
-6.067373828125000000e+04
-6.067498437500000000e+04
-6.067519140625000000e+04
-6.067540234375000000e+04
-6.067594921875000000e+04
-6.067462109375000000e+04
-6.067421484375000000e+04
-6.067366015625000000e+04
-6.067390234375000000e+04
-6.067574609375000000e+04
-6.067450000000000000e+04
-6.069317968750000000e+04
-6.067158203125000000e+04
-6.066732812500000000e+04
-6.066627734375000000e+04
-6.066238281250000000e+04
-6.065985546875000000e+04
-6.066074218750000000e+04
-6.066022265625000000e+04
-6.066072265625000000e+04
-6.065796875000000000e+04
-6.065819531250000000e+04
-6.065898437500000000e+04
-6.065603125000000000e+04
-6.065851953125000000e+04
-6.065907812500000000e+04
-6.066069531250000000e+04
-6.065984765625000000e+04
-6.066192968750000000e+04
-6.066025781250000000e+04
-6.065942578125000000e+04
-6.065743359375000000e+04
-6.065923828125000000e+04
-6.065895312500000000e+04
-6.066068359375000000e+04
-6.065994531250000000e+04
-6.065801953125000000e+04
-6.065904296875000000e+04
-6.065742187500000000e+04
-6.066010156250000000e+04
-6.065902734375000000e+04
-6.066192578125000000e+04
-6.066013281250000000e+04
-6.065891015625000000e+04
-6.066087500000000000e+04
-6.065917578125000000e+04
-6.065944921875000000e+04
-6.065922265625000000e+04
-6.065958593750000000e+04
-6.066182031250000000e+04
-6.066013671875000000e+04
-6.065745312500000000e+04
-6.065647656250000000e+04
-6.065552734375000000e+04
-6.065716796875000000e+04
-6.065971093750000000e+04
-6.065923828125000000e+04
-6.065758593750000000e+04
-6.065769531250000000e+04
-6.069317968750000000e+04
-6.066505078125000000e+04
-6.065921093750000000e+04
-6.064714843750000000e+04
-6.064282031250000000e+04
-6.063885937500000000e+04
-6.063828906250000000e+04
-6.063583203125000000e+04
-6.063955468750000000e+04
-6.063968750000000000e+04
-6.063960937500000000e+04
-6.064217578125000000e+04
-6.063993359375000000e+04
-6.064103125000000000e+04
-6.063649218750000000e+04
-6.063784375000000000e+04
-6.064171484375000000e+04
-6.064234765625000000e+04
-6.064016796875000000e+04
-6.064131640625000000e+04
-6.063870703125000000e+04
-6.064153125000000000e+04
-6.063815234375000000e+04
-6.063955859375000000e+04
-6.063949218750000000e+04
-6.064317968750000000e+04
-6.064513281250000000e+04
-6.064348046875000000e+04
-6.064064453125000000e+04
-6.064051953125000000e+04
-6.063699218750000000e+04
-6.063848046875000000e+04
-6.063820703125000000e+04
-6.064089843750000000e+04
-6.064212109375000000e+04
-6.063837890625000000e+04
-6.064007031250000000e+04
-6.063855468750000000e+04
-6.063880468750000000e+04
-6.063944140625000000e+04
-6.063949218750000000e+04
-6.064076562500000000e+04
-6.063968359375000000e+04
-6.063847265625000000e+04
-6.063887500000000000e+04
-6.064310937500000000e+04
-6.069245312500000000e+04
-6.068195703125000000e+04
-6.067880468750000000e+04
-6.067601953125000000e+04
-6.067636328125000000e+04
-6.067578515625000000e+04
-6.067621484375000000e+04
-6.067601953125000000e+04
-6.067806640625000000e+04
-6.067678906250000000e+04
-6.067724609375000000e+04
-6.067733593750000000e+04
-6.067665625000000000e+04
-6.067571484375000000e+04
-6.067486718750000000e+04
-6.067484765625000000e+04
-6.067490234375000000e+04
-6.067794921875000000e+04
-6.067733593750000000e+04
-6.067525781250000000e+04
-6.067606250000000000e+04
-6.067578515625000000e+04
-6.067620312500000000e+04
-6.067732031250000000e+04
-6.067708593750000000e+04
-6.067478906250000000e+04
-6.067477343750000000e+04
-6.067526171875000000e+04
-6.067520312500000000e+04
-6.067423046875000000e+04
-6.067539453125000000e+04
-6.067462890625000000e+04
-6.067472265625000000e+04
-6.067554296875000000e+04
-6.067535937500000000e+04
-6.067532031250000000e+04
-6.067334765625000000e+04
-6.067348828125000000e+04
-6.067462109375000000e+04
-6.067552343750000000e+04
-6.067475000000000000e+04
-6.067516015625000000e+04
-6.067578125000000000e+04
-6.067623046875000000e+04
-6.067530859375000000e+04
-6.067320312500000000e+04
-6.067444140625000000e+04
-6.069245312500000000e+04
-6.067394531250000000e+04
-6.066918750000000000e+04
-6.066620703125000000e+04
-6.066032031250000000e+04
-6.066292578125000000e+04
-6.065693359375000000e+04
-6.066053906250000000e+04
-6.066120703125000000e+04
-6.066042578125000000e+04
-6.066075781250000000e+04
-6.065941015625000000e+04
-6.065998828125000000e+04
-6.066308984375000000e+04
-6.066069531250000000e+04
-6.065702734375000000e+04
-6.065858203125000000e+04
-6.066038671875000000e+04
-6.065860937500000000e+04
-6.065951953125000000e+04
-6.065800000000000000e+04
-6.065785156250000000e+04
-6.065758593750000000e+04
-6.065799609375000000e+04
-6.066084765625000000e+04
-6.066205468750000000e+04
-6.065968359375000000e+04
-6.065855468750000000e+04
-6.065851171875000000e+04
-6.065831250000000000e+04
-6.065789453125000000e+04
-6.065727734375000000e+04
-6.065846484375000000e+04
-6.065660937500000000e+04
-6.065662890625000000e+04
-6.065928906250000000e+04
-6.065912890625000000e+04
-6.065701171875000000e+04
-6.065847656250000000e+04
-6.065913671875000000e+04
-6.065880078125000000e+04
-6.065779296875000000e+04
-6.065891015625000000e+04
-6.065821484375000000e+04
-6.065753125000000000e+04
-6.065686328125000000e+04
-6.065727734375000000e+04
-6.065848437500000000e+04
-6.069245312500000000e+04
-6.066510156250000000e+04
-6.065984375000000000e+04
-6.065366406250000000e+04
-6.065168359375000000e+04
-6.064643359375000000e+04
-6.064064453125000000e+04
-6.063763671875000000e+04
-6.064055078125000000e+04
-6.064150000000000000e+04
-6.063940625000000000e+04
-6.063800781250000000e+04
-6.063871093750000000e+04
-6.064155078125000000e+04
-6.063961718750000000e+04
-6.063903906250000000e+04
-6.063744140625000000e+04
-6.063777734375000000e+04
-6.063926562500000000e+04
-6.064126171875000000e+04
-6.064178906250000000e+04
-6.064321875000000000e+04
-6.064295703125000000e+04
-6.063782421875000000e+04
-6.063733593750000000e+04
-6.064126171875000000e+04
-6.063848828125000000e+04
-6.063909765625000000e+04
-6.063827343750000000e+04
-6.063662109375000000e+04
-6.063417578125000000e+04
-6.063343750000000000e+04
-6.063600000000000000e+04
-6.063786328125000000e+04
-6.063651953125000000e+04
-6.063689062500000000e+04
-6.063674218750000000e+04
-6.063701562500000000e+04
-6.063101953125000000e+04
-6.063189453125000000e+04
-6.063439062500000000e+04
-6.063439843750000000e+04
-6.069468359375000000e+04
-6.068150390625000000e+04
-6.067931250000000000e+04
-6.067704687500000000e+04
-6.067554687500000000e+04
-6.067475781250000000e+04
-6.067666796875000000e+04
-6.067613671875000000e+04
-6.067651171875000000e+04
-6.067755468750000000e+04
-6.067755468750000000e+04
-6.067578125000000000e+04
-6.067619531250000000e+04
-6.067454296875000000e+04
-6.067533203125000000e+04
-6.067714062500000000e+04
-6.067710937500000000e+04
-6.067753906250000000e+04
-6.067544921875000000e+04
-6.067747656250000000e+04
-6.067622656250000000e+04
-6.067607421875000000e+04
-6.067521484375000000e+04
-6.067556640625000000e+04
-6.067750000000000000e+04
-6.067658984375000000e+04
-6.067623437500000000e+04
-6.067581250000000000e+04
-6.067522265625000000e+04
-6.067607031250000000e+04
-6.067539843750000000e+04
-6.067636328125000000e+04
-6.067715234375000000e+04
-6.067698437500000000e+04
-6.067611718750000000e+04
-6.067522656250000000e+04
-6.067419140625000000e+04
-6.067517187500000000e+04
-6.067575000000000000e+04
-6.067703515625000000e+04
-6.067667187500000000e+04
-6.067592578125000000e+04
-6.067528125000000000e+04
-6.067575390625000000e+04
-6.067685546875000000e+04
-6.067644140625000000e+04
-6.067547265625000000e+04
-6.069468359375000000e+04
-6.067328515625000000e+04
-6.066984765625000000e+04
-6.066608593750000000e+04
-6.066182031250000000e+04
-6.065867578125000000e+04
-6.065914453125000000e+04
-6.066166015625000000e+04
-6.066058984375000000e+04
-6.066273437500000000e+04
-6.065658203125000000e+04
-6.066101953125000000e+04
-6.065847265625000000e+04
-6.066005859375000000e+04
-6.066113671875000000e+04
-6.065771484375000000e+04
-6.065851171875000000e+04
-6.065760546875000000e+04
-6.065862109375000000e+04
-6.065928125000000000e+04
-6.065926562500000000e+04
-6.065930859375000000e+04
-6.065785156250000000e+04
-6.065864453125000000e+04
-6.065667187500000000e+04
-6.065779296875000000e+04
-6.065945703125000000e+04
-6.065681250000000000e+04
-6.065995703125000000e+04
-6.065950390625000000e+04
-6.065867968750000000e+04
-6.065694921875000000e+04
-6.065921484375000000e+04
-6.065907031250000000e+04
-6.066007031250000000e+04
-6.065990234375000000e+04
-6.065940625000000000e+04
-6.065712109375000000e+04
-6.065820703125000000e+04
-6.065950390625000000e+04
-6.065846875000000000e+04
-6.065612890625000000e+04
-6.065967578125000000e+04
-6.065867187500000000e+04
-6.065896093750000000e+04
-6.065801171875000000e+04
-6.065680078125000000e+04
-6.069468359375000000e+04
-6.066181640625000000e+04
-6.065480468750000000e+04
-6.064783984375000000e+04
-6.064658984375000000e+04
-6.063975000000000000e+04
-6.063845312500000000e+04
-6.063717578125000000e+04
-6.064135156250000000e+04
-6.063967578125000000e+04
-6.063788281250000000e+04
-6.063906640625000000e+04
-6.063661718750000000e+04
-6.063637109375000000e+04
-6.064153906250000000e+04
-6.063780468750000000e+04
-6.063889453125000000e+04
-6.063745312500000000e+04
-6.063958593750000000e+04
-6.064076171875000000e+04
-6.063991406250000000e+04
-6.064007812500000000e+04
-6.063912890625000000e+04
-6.063626562500000000e+04
-6.063294921875000000e+04
-6.063803125000000000e+04
-6.063825000000000000e+04
-6.063896093750000000e+04
-6.064076562500000000e+04
-6.064346875000000000e+04
-6.064483593750000000e+04
-6.064050390625000000e+04
-6.064063671875000000e+04
-6.063997656250000000e+04
-6.064052734375000000e+04
-6.063666796875000000e+04
-6.063890234375000000e+04
-6.064188671875000000e+04
-6.064541015625000000e+04
-6.064303906250000000e+04
-6.063903906250000000e+04
-6.063730468750000000e+04
-6.063658593750000000e+04
-6.069146875000000000e+04
-6.068010937500000000e+04
-6.067731250000000000e+04
-6.067740625000000000e+04
-6.067706250000000000e+04
-6.067556640625000000e+04
-6.067699609375000000e+04
-6.067535156250000000e+04
-6.067451562500000000e+04
-6.067596875000000000e+04
-6.067611328125000000e+04
-6.067476562500000000e+04
-6.067431250000000000e+04
-6.067637890625000000e+04
-6.067670312500000000e+04
-6.067620312500000000e+04
-6.067512109375000000e+04
-6.067537500000000000e+04
-6.067525781250000000e+04
-6.067592968750000000e+04
-6.067692187500000000e+04
-6.067756640625000000e+04
-6.067482031250000000e+04
-6.067542578125000000e+04
-6.067684375000000000e+04
-6.067617187500000000e+04
-6.067589843750000000e+04
-6.067468750000000000e+04
-6.067554687500000000e+04
-6.067496093750000000e+04
-6.067695703125000000e+04
-6.067548828125000000e+04
-6.067651562500000000e+04
-6.067680859375000000e+04
-6.067744921875000000e+04
-6.067532812500000000e+04
-6.067537500000000000e+04
-6.067622265625000000e+04
-6.067622265625000000e+04
-6.067621093750000000e+04
-6.067713671875000000e+04
-6.067701171875000000e+04
-6.067329296875000000e+04
-6.066969531250000000e+04
-6.066292968750000000e+04
-6.066311328125000000e+04
-6.065943359375000000e+04
-6.066074609375000000e+04
-6.066151953125000000e+04
-6.066125390625000000e+04
-6.066444140625000000e+04
-6.066192578125000000e+04
-6.066178515625000000e+04
-6.066133984375000000e+04
-6.066073046875000000e+04
-6.066139843750000000e+04
-6.066185156250000000e+04
-6.066280078125000000e+04
-6.066080468750000000e+04
-6.065816796875000000e+04
-6.065701953125000000e+04
-6.065932031250000000e+04
-6.065992187500000000e+04
-6.065831250000000000e+04
-6.065936718750000000e+04
-6.066187109375000000e+04
-6.066103515625000000e+04
-6.066157421875000000e+04
-6.066189843750000000e+04
-6.065976171875000000e+04
-6.066058984375000000e+04
-6.065768359375000000e+04
-6.065885156250000000e+04
-6.065939453125000000e+04
-6.066235937500000000e+04
-6.066293750000000000e+04
-6.066326171875000000e+04
-6.066035937500000000e+04
-6.066059375000000000e+04
-6.066242187500000000e+04
-6.066290625000000000e+04
-6.066334765625000000e+04
-6.065944921875000000e+04
-6.065837500000000000e+04
-6.065838281250000000e+04
-6.065977734375000000e+04
-6.066282031250000000e+04
-6.066059375000000000e+04
-6.065912109375000000e+04
-6.065591796875000000e+04
-6.065993359375000000e+04
-6.069146875000000000e+04
-6.066476171875000000e+04
-6.065900781250000000e+04
-6.065317578125000000e+04
-6.065065625000000000e+04
-6.064683984375000000e+04
-6.064042968750000000e+04
-6.064176171875000000e+04
-6.064121484375000000e+04
-6.064483203125000000e+04
-6.064176171875000000e+04
-6.064713281250000000e+04
-6.064186328125000000e+04
-6.064034765625000000e+04
-6.063872656250000000e+04
-6.063544921875000000e+04
-6.063621875000000000e+04
-6.063939453125000000e+04
-6.063988281250000000e+04
-6.063960937500000000e+04
-6.064033203125000000e+04
-6.063829687500000000e+04
-6.063551562500000000e+04
-6.063451562500000000e+04
-6.063469531250000000e+04
-6.063823046875000000e+04
-6.063746875000000000e+04
-6.063815625000000000e+04
-6.063662500000000000e+04
-6.063780078125000000e+04
-6.063257812500000000e+04
-6.063330078125000000e+04
-6.063414062500000000e+04
-6.063171093750000000e+04
-6.063441406250000000e+04
-6.063583203125000000e+04
-6.063945703125000000e+04
-6.063341015625000000e+04
-6.063198828125000000e+04
-6.063350390625000000e+04
-6.063278906250000000e+04
-6.063652343750000000e+04
-6.063662500000000000e+04
-6.063692578125000000e+04
-6.063789062500000000e+04
-6.069343359375000000e+04
-6.068108203125000000e+04
-6.067741015625000000e+04
-6.067708593750000000e+04
-6.067599218750000000e+04
-6.067575781250000000e+04
-6.067577734375000000e+04
-6.067553515625000000e+04
-6.067480468750000000e+04
-6.067442578125000000e+04
-6.067487890625000000e+04
-6.067433984375000000e+04
-6.067524218750000000e+04
-6.067465234375000000e+04
-6.067615234375000000e+04
-6.067597656250000000e+04
-6.067551171875000000e+04
-6.067547265625000000e+04
-6.067529296875000000e+04
-6.067510546875000000e+04
-6.067535937500000000e+04
-6.067557031250000000e+04
-6.067553515625000000e+04
-6.067694531250000000e+04
-6.067441406250000000e+04
-6.067518359375000000e+04
-6.067535546875000000e+04
-6.067472265625000000e+04
-6.067646484375000000e+04
-6.067516015625000000e+04
-6.067625000000000000e+04
-6.067635546875000000e+04
-6.067551171875000000e+04
-6.067586328125000000e+04
-6.067560937500000000e+04
-6.067478515625000000e+04
-6.067392968750000000e+04
-6.067476953125000000e+04
-6.067432031250000000e+04
-6.067494921875000000e+04
-6.067564062500000000e+04
-6.067507031250000000e+04
-6.067634765625000000e+04
-6.069343359375000000e+04
-6.067269921875000000e+04
-6.067045703125000000e+04
-6.066603906250000000e+04
-6.066275390625000000e+04
-6.066132812500000000e+04
-6.065826953125000000e+04
-6.065883203125000000e+04
-6.065938281250000000e+04
-6.066196875000000000e+04
-6.066113671875000000e+04
-6.066213281250000000e+04
-6.066053906250000000e+04
-6.066014453125000000e+04
-6.065673437500000000e+04
-6.065984765625000000e+04
-6.066201953125000000e+04
-6.066152734375000000e+04
-6.066179687500000000e+04
-6.065940625000000000e+04
-6.066098828125000000e+04
-6.066012109375000000e+04
-6.065953125000000000e+04
-6.066107421875000000e+04
-6.066244140625000000e+04
-6.065993750000000000e+04
-6.066123046875000000e+04
-6.065895312500000000e+04
-6.065735937500000000e+04
-6.065764843750000000e+04
-6.065595312500000000e+04
-6.065970312500000000e+04
-6.065970312500000000e+04
-6.065903125000000000e+04
-6.065954296875000000e+04
-6.065860937500000000e+04
-6.065750390625000000e+04
-6.065925000000000000e+04
-6.065935156250000000e+04
-6.065903125000000000e+04
-6.066055859375000000e+04
-6.065948437500000000e+04
-6.065692968750000000e+04
-6.065826562500000000e+04
-6.065979687500000000e+04
-6.065912890625000000e+04
-6.065874609375000000e+04
-6.065724218750000000e+04
-6.065678125000000000e+04
-6.069343359375000000e+04
-6.066569921875000000e+04
-6.066309375000000000e+04
-6.065366406250000000e+04
-6.064038281250000000e+04
-6.063885546875000000e+04
-6.064348437500000000e+04
-6.064226953125000000e+04
-6.064236328125000000e+04
-6.064424609375000000e+04
-6.063697656250000000e+04
-6.063491796875000000e+04
-6.063707031250000000e+04
-6.063720312500000000e+04
-6.063710546875000000e+04
-6.063780859375000000e+04
-6.063971875000000000e+04
-6.063855078125000000e+04
-6.063791796875000000e+04
-6.063656640625000000e+04
-6.064091796875000000e+04
-6.064071484375000000e+04
-6.064028125000000000e+04
-6.063984765625000000e+04
-6.063891796875000000e+04
-6.063689453125000000e+04
-6.063074609375000000e+04
-6.063264843750000000e+04
-6.063384765625000000e+04
-6.063357812500000000e+04
-6.063565234375000000e+04
-6.063460546875000000e+04
-6.063441796875000000e+04
-6.063515234375000000e+04
-6.063690625000000000e+04
-6.064358593750000000e+04
-6.064152734375000000e+04
-6.063787890625000000e+04
-6.063612109375000000e+04
-6.063731640625000000e+04
-6.063497656250000000e+04
-6.063777734375000000e+04
-6.063573046875000000e+04
-6.063692968750000000e+04
-6.063716406250000000e+04
-6.063841015625000000e+04
-6.063494531250000000e+04
-6.067997265625000000e+04
-6.067682031250000000e+04
-6.067650390625000000e+04
-6.067536328125000000e+04
-6.067449609375000000e+04
-6.067508203125000000e+04
-6.067650000000000000e+04
-6.067581640625000000e+04
-6.067617968750000000e+04
-6.067535546875000000e+04
-6.067593750000000000e+04
-6.067457031250000000e+04
-6.067571875000000000e+04
-6.067586328125000000e+04
-6.067408984375000000e+04
-6.067621484375000000e+04
-6.067565625000000000e+04
-6.067824218750000000e+04
-6.067744140625000000e+04
-6.067602343750000000e+04
-6.067486718750000000e+04
-6.067527343750000000e+04
-6.067425781250000000e+04
-6.067422656250000000e+04
-6.067535546875000000e+04
-6.067530078125000000e+04
-6.067515625000000000e+04
-6.067500390625000000e+04
-6.067426953125000000e+04
-6.067498828125000000e+04
-6.067494140625000000e+04
-6.067530468750000000e+04
-6.067466796875000000e+04
-6.067560156250000000e+04
-6.067453515625000000e+04
-6.067581250000000000e+04
-6.067577343750000000e+04
-6.067557421875000000e+04
-6.067615234375000000e+04
-6.067621093750000000e+04
-6.067530078125000000e+04
-6.067517578125000000e+04
-6.067533203125000000e+04
-6.067647656250000000e+04
-6.067483984375000000e+04
-6.067164062500000000e+04
-6.066821875000000000e+04
-6.066300390625000000e+04
-6.066246484375000000e+04
-6.065856250000000000e+04
-6.065865625000000000e+04
-6.066110937500000000e+04
-6.065820703125000000e+04
-6.066079296875000000e+04
-6.066023828125000000e+04
-6.066218750000000000e+04
-6.066229687500000000e+04
-6.065821093750000000e+04
-6.065908593750000000e+04
-6.066116796875000000e+04
-6.065878515625000000e+04
-6.065842187500000000e+04
-6.066057812500000000e+04
-6.066090234375000000e+04
-6.066129687500000000e+04
-6.066001953125000000e+04
-6.065796093750000000e+04
-6.065950000000000000e+04
-6.065662109375000000e+04
-6.066061328125000000e+04
-6.066097656250000000e+04
-6.066055468750000000e+04
-6.065904296875000000e+04
-6.065866796875000000e+04
-6.065687109375000000e+04
-6.066010937500000000e+04
-6.066033593750000000e+04
-6.065563671875000000e+04
-6.065722265625000000e+04
-6.065942968750000000e+04
-6.066028515625000000e+04
-6.065812109375000000e+04
-6.065893359375000000e+04
-6.066046875000000000e+04
-6.066008203125000000e+04
-6.065831250000000000e+04
-6.066098437500000000e+04
-6.066122656250000000e+04
-6.066192187500000000e+04
-6.069248437500000000e+04
-6.065972656250000000e+04
-6.065195312500000000e+04
-6.064622265625000000e+04
-6.064364453125000000e+04
-6.063818750000000000e+04
-6.063631640625000000e+04
-6.064043359375000000e+04
-6.063921875000000000e+04
-6.063889453125000000e+04
-6.063548828125000000e+04
-6.063235546875000000e+04
-6.063760937500000000e+04
-6.063571484375000000e+04
-6.063485156250000000e+04
-6.063375390625000000e+04
-6.064055859375000000e+04
-6.063910156250000000e+04
-6.063784765625000000e+04
-6.063562109375000000e+04
-6.063688671875000000e+04
-6.063369921875000000e+04
-6.063380468750000000e+04
-6.063191796875000000e+04
-6.062871093750000000e+04
-6.063313671875000000e+04
-6.063440625000000000e+04
-6.063715234375000000e+04
-6.063697265625000000e+04
-6.063810156250000000e+04
-6.063877343750000000e+04
-6.063487109375000000e+04
-6.063474218750000000e+04
-6.063477734375000000e+04
-6.063371093750000000e+04
-6.063778125000000000e+04
-6.063804687500000000e+04
-6.063604687500000000e+04
-6.063116796875000000e+04
-6.063927734375000000e+04
-6.063293750000000000e+04
-6.063233203125000000e+04
-6.063428515625000000e+04
-6.069444921875000000e+04
-6.067965234375000000e+04
-6.067873046875000000e+04
-6.067712109375000000e+04
-6.067617968750000000e+04
-6.067499609375000000e+04
-6.067502343750000000e+04
-6.067663671875000000e+04
-6.067532421875000000e+04
-6.067344531250000000e+04
-6.067453906250000000e+04
-6.067463671875000000e+04
-6.067532812500000000e+04
-6.067489453125000000e+04
-6.067528906250000000e+04
-6.067395312500000000e+04
-6.067373437500000000e+04
-6.067322656250000000e+04
-6.067433984375000000e+04
-6.067491406250000000e+04
-6.067294140625000000e+04
-6.067320312500000000e+04
-6.067471093750000000e+04
-6.067446093750000000e+04
-6.067622656250000000e+04
-6.067495312500000000e+04
-6.067427734375000000e+04
-6.067373437500000000e+04
-6.067507031250000000e+04
-6.067480078125000000e+04
-6.067532031250000000e+04
-6.067610937500000000e+04
-6.067571484375000000e+04
-6.067486718750000000e+04
-6.067495703125000000e+04
-6.067451562500000000e+04
-6.067580468750000000e+04
-6.067708203125000000e+04
-6.067639062500000000e+04
-6.067530078125000000e+04
-6.067559765625000000e+04
-6.067433593750000000e+04
-6.067476562500000000e+04
-6.067503125000000000e+04
-6.067433203125000000e+04
-6.067456250000000000e+04
-6.067398828125000000e+04
-6.067471093750000000e+04
-6.067596093750000000e+04
-6.069444921875000000e+04
-6.067338671875000000e+04
-6.067198437500000000e+04
-6.066731640625000000e+04
-6.066326171875000000e+04
-6.066111718750000000e+04
-6.065752343750000000e+04
-6.065658203125000000e+04
-6.065561718750000000e+04
-6.065808984375000000e+04