6.532365417480468750e+01 1.758470153808593750e+01 1.558926010131835938e+01 1.758470153808593750e+01 6.030271148681640625e+01 2.250943756103515625e+01 1.558926010131835938e+01 2.250943756103515625e+01 9.914144134521484375e+01
-7.955290985107421875e+01 1.533952331542968750e+01 -5.726986885070800781e+00 1.533952331542968750e+01 -6.304775619506835938e+01 1.818887472152709961e+00 -5.726986885070800781e+00 1.818887472152709961e+00 -4.867096710205078125e+01
-1.984711265563964844e+01 9.444953918457031250e+00 -1.132449531555175781e+01 9.444953918457031250e+00 4.259229660034179688e+00 2.299755811691284180e+00 -1.132449531555175781e+01 2.299755811691284180e+00 -5.603967666625976562e+00
-1.987762451171875000e+00 6.533217906951904297e+00 -6.003695487976074219e+00 6.533217906951904297e+00 3.692196607589721680e-01 6.289346218109130859e-01 -6.003695487976074219e+00 6.289346218109130859e-01 8.485894203186035156e+00
-3.101543807983398438e+01 1.033120727539062500e+01 2.782564878463745117e+00 1.033120727539062500e+01 -2.670298767089843750e+01 5.284184455871582031e+00 2.782564878463745117e+00 5.284184455871582031e+00 -1.521252727508544922e+01
-2.066949844360351562e+00 6.672843456268310547e+00 -9.542294502258300781e+00 6.672843456268310547e+00 -4.066567420959472656e+00 4.251879215240478516e+00 -9.542294502258300781e+00 4.251879215240478516e+00 -2.032272720336914062e+01
-6.410573482513427734e+00 6.743421554565429688e+00 3.487810850143432617e+00 6.743421554565429688e+00 6.044758796691894531e+00 7.945847034454345703e+00 3.487810850143432617e+00 7.945847034454345703e+00 -7.447389960289001465e-01
-2.387290954589843750e+01 1.611639976501464844e+01 -2.991262674331665039e-01 1.611639976501464844e+01 -2.230464363098144531e+01 4.601624011993408203e+00 -2.991262674331665039e-01 4.601624011993408203e+00 3.603240489959716797e+00
-1.455547904968261719e+01 8.428760528564453125e+00 -9.152669906616210938e-01 8.428760528564453125e+00 -1.983168792724609375e+01 4.846745967864990234e+00 -9.152669906616210938e-01 4.846745967864990234e+00 -3.073201179504394531e+00
2.969024181365966797e+00 1.323507881164550781e+01 -1.132228660583496094e+01 1.323507881164550781e+01 2.784317970275878906e+00 1.052013397216796875e+01 -1.132228660583496094e+01 1.052013397216796875e+01 7.738178968429565430e-01
-1.799057006835937500e+01 1.065237426757812500e+01 4.857571601867675781e+00 1.065237426757812500e+01 -2.294662094116210938e+01 1.875253438949584961e+00 4.857571601867675781e+00 1.875253438949584961e+00 -1.583920001983642578e+01
-9.749186515808105469e+00 2.319443893432617188e+01 4.671620845794677734e+00 2.319443893432617188e+01 -8.393366813659667969e+00 7.651056766510009766e+00 4.671620845794677734e+00 7.651056766510009766e+00 1.889807105064392090e+00
-2.386545944213867188e+01 1.941581153869628906e+01 -8.640947341918945312e+00 1.941581153869628906e+01 -7.038080215454101562e+00 9.948929786682128906e+00 -8.640947341918945312e+00 9.948929786682128906e+00 -2.030109596252441406e+01
-1.707183647155761719e+01 1.313989734649658203e+01 -6.253784179687500000e+00 1.313989734649658203e+01 -1.556587791442871094e+01 1.160245800018310547e+01 -6.253784179687500000e+00 1.160245800018310547e+01 2.697141885757446289e+00
-1.831833648681640625e+01 4.800545692443847656e+00 -4.980929374694824219e+00 4.800545692443847656e+00 -7.852685451507568359e+00 1.004158496856689453e+01 -4.980929374694824219e+00 1.004158496856689453e+01 -3.315495252609252930e+00
7.351346015930175781e-01 8.492047309875488281e+00 -5.552880764007568359e-01 8.492047309875488281e+00 1.231923294067382812e+01 1.202895832061767578e+01 -5.552880764007568359e-01 1.202895832061767578e+01 7.309145450592041016e+00
-2.068156814575195312e+01 5.731616973876953125e+00 7.288293838500976562e-01 5.731616973876953125e+00 -2.505685806274414062e+00 3.673955440521240234e+00 7.288293838500976562e-01 3.673955440521240234e+00 -1.739105343818664551e+00
-1.523521423339843750e+01 1.541335773468017578e+01 -5.188057899475097656e+00 1.541335773468017578e+01 -7.001858234405517578e+00 9.108678817749023438e+00 -5.188057899475097656e+00 9.108678817749023438e+00 3.352223157882690430e+00
-4.673956871032714844e+00 7.684271812438964844e+00 2.238617420196533203e+00 7.684271812438964844e+00 -1.543243217468261719e+01 1.449578094482421875e+01 2.238617420196533203e+00 1.449578094482421875e+01 -1.974788856506347656e+01
-2.703384637832641602e+00 1.249802708625793457e+00 1.093609929084777832e+00 1.249802708625793457e+00 -5.278230667114257812e+00 1.429954528808593750e+01 1.093609929084777832e+00 1.429954528808593750e+01 -1.342320293188095093e-01
-3.605846405029296875e+01 1.335509967803955078e+01 -5.489023208618164062e+00 1.335509967803955078e+01 -4.752778053283691406e+00 5.554775238037109375e+00 -5.489023208618164062e+00 5.554775238037109375e+00 -7.768815994262695312e+00
-1.022390460968017578e+01 8.847880363464355469e+00 7.744735717773437500e+00 8.847880363464355469e+00 -6.677741050720214844e+00 3.938398122787475586e+00 7.744735717773437500e+00 3.938398122787475586e+00 1.710182380676269531e+01
-2.741301155090332031e+01 1.064616394042968750e+01 -6.233939170837402344e+00 1.064616394042968750e+01 -1.684135055541992188e+01 3.972708225250244141e+00 -6.233939170837402344e+00 3.972708225250244141e+00 -6.585308551788330078e+00
-1.223450565338134766e+01 1.260499858856201172e+01 -6.485868930816650391e+00 1.260499858856201172e+01 5.634156703948974609e+00 1.820562744140625000e+01 -6.485868930816650391e+00 1.820562744140625000e+01 -1.432685852050781250e+01
1.054760932922363281e+00 8.933384895324707031e+00 -1.883477568626403809e+00 8.933384895324707031e+00 4.648026466369628906e+00 2.949880027770996094e+01 -1.883477568626403809e+00 2.949880027770996094e+01 7.442503452301025391e+00
-3.773792505264282227e+00 5.960585117340087891e+00 9.123178482055664062e+00 5.960585117340087891e+00 -4.692013740539550781e+00 1.250241851806640625e+01 9.123178482055664062e+00 1.250241851806640625e+01 -8.622287750244140625e+00
-1.313879680633544922e+01 1.169166183471679688e+01 6.258551120758056641e+00 1.169166183471679688e+01 -7.595901966094970703e+00 6.476514816284179688e+00 6.258551120758056641e+00 6.476514816284179688e+00 6.202937126159667969e+00
-7.579553127288818359e+00 1.570774173736572266e+01 1.122986674308776855e+00 1.570774173736572266e+01 -1.829057121276855469e+01 8.743404388427734375e+00 1.122986674308776855e+00 8.743404388427734375e+00 -3.342056512832641602e+00
3.221625089645385742e+00 1.980692625045776367e+00 -6.819081306457519531e-01 1.980692625045776367e+00 -2.970093488693237305e+00 7.176779747009277344e+00 -6.819081306457519531e-01 7.176779747009277344e+00 -1.530340313911437988e+00
-2.208253288269042969e+01 -6.610333442687988281e+00 -1.159991455078125000e+01 -6.610333442687988281e+00 -3.707278823852539062e+01 1.291927415877580643e-02 -1.159991455078125000e+01 1.291927415877580643e-02 4.997523427009582520e-01
-1.396710300445556641e+01 1.293824434280395508e+00 -8.603369712829589844e+00 1.293824434280395508e+00 1.626985931396484375e+01 -5.091167688369750977e-01 -8.603369712829589844e+00 -5.091167688369750977e-01 1.671906661987304688e+01
-3.366181182861328125e+01 3.256347179412841797e+00 4.075214862823486328e+00 3.256347179412841797e+00 -1.386651611328125000e+01 1.791694259643554688e+01 4.075214862823486328e+00 1.791694259643554688e+01 -9.075753211975097656e+00
-9.159693717956542969e+00 1.567495727539062500e+01 8.725384712219238281e+00 1.567495727539062500e+01 -2.021221876144409180e+00 1.343997669219970703e+01 8.725384712219238281e+00 1.343997669219970703e+01 -1.184546470642089844e+01
-7.523747682571411133e-01 1.722234535217285156e+01 -3.071224689483642578e+00 1.722234535217285156e+01 -8.879014968872070312e+00 1.699977302551269531e+01 -3.071224689483642578e+00 1.699977302551269531e+01 -9.585213661193847656e+00
-1.041720008850097656e+01 4.958700180053710938e+00 1.016726065427064896e-02 4.958700180053710938e+00 -1.589152932167053223e+00 4.111931324005126953e+00 1.016726065427064896e-02 4.111931324005126953e+00 -2.013283348083496094e+01
-6.163665056228637695e-01 -1.094063401222229004e+00 -8.090345263481140137e-01 -1.094063401222229004e+00 2.558427810668945312e+01 -3.335441052913665771e-01 -8.090345263481140137e-01 -3.335441052913665771e-01 1.702443122863769531e+01
-1.780754852294921875e+01 5.314900398254394531e+00 -4.640693187713623047e+00 5.314900398254394531e+00 -6.108064174652099609e+00 1.254189491271972656e+01 -4.640693187713623047e+00 1.254189491271972656e+01 -1.314087963104248047e+01
-7.696701526641845703e+00 7.619568347930908203e+00 3.916734695434570312e+00 7.619568347930908203e+00 -2.336048364639282227e+00 7.143622398376464844e+00 3.916734695434570312e+00 7.143622398376464844e+00 2.140812683105468750e+01
-1.924240684509277344e+01 7.759381771087646484e+00 1.224345445632934570e+00 7.759381771087646484e+00 -2.166283798217773438e+01 1.172149944305419922e+01 1.224345445632934570e+00 1.172149944305419922e+01 -6.098001956939697266e+00
-1.298832702636718750e+01 6.337386608123779297e+00 3.429550409317016602e+00 6.337386608123779297e+00 -9.061359405517578125e+00 8.000598907470703125e+00 3.429550409317016602e+00 8.000598907470703125e+00 -6.154217720031738281e-01
-1.855163002014160156e+01 -3.082391321659088135e-01 -4.233254909515380859e+00 -3.082391321659088135e-01 -6.931042671203613281e+00 6.874096989631652832e-01 -4.233254909515380859e+00 6.874096989631652832e-01 1.554720592498779297e+01
-7.242789745330810547e+00 5.920341491699218750e+00 -1.409487485885620117e+00 5.920341491699218750e+00 3.024597883224487305e+00 8.458261489868164062e+00 -1.409487485885620117e+00 8.458261489868164062e+00 1.112699747085571289e+00
-2.688539123535156250e+01 7.505453586578369141e+00 -7.907404303550720215e-01 7.505453586578369141e+00 2.202076911926269531e+00 7.448092937469482422e+00 -7.907404303550720215e-01 7.448092937469482422e+00 -1.145850563049316406e+01
-1.436392498016357422e+01 4.467929363250732422e+00 2.474498033523559570e+00 4.467929363250732422e+00 -1.504985523223876953e+01 1.513345146179199219e+01 2.474498033523559570e+00 1.513345146179199219e+01 1.342616081237792969e+00
-1.615649032592773438e+01 1.982467435300350189e-02 5.695190429687500000e+00 1.982467435300350189e-02 -1.862471342086791992e+00 9.272905349731445312e+00 5.695190429687500000e+00 9.272905349731445312e+00 4.453184604644775391e+00
-3.537953567504882812e+01 -1.645855545997619629e+00 1.073348712921142578e+01 -1.645855545997619629e+00 -9.577220916748046875e+00 2.254023361206054688e+01 1.073348712921142578e+01 2.254023361206054688e+01 8.261433601379394531e+00
1.014858782291412354e-01 -2.731212139129638672e+00 -7.609127044677734375e+00 -2.731212139129638672e+00 -3.115845918655395508e+00 1.923994064331054688e+01 -7.609127044677734375e+00 1.923994064331054688e+01 5.579564094543457031e+00
-7.427454590797424316e-01 3.791619539260864258e+00 1.152689552307128906e+01 3.791619539260864258e+00 -1.197816753387451172e+01 7.154536724090576172e+00 1.152689552307128906e+01 7.154536724090576172e+00 -1.238752555847167969e+01
-2.005328750610351562e+01 5.309099674224853516e+00 1.867845654487609863e+00 5.309099674224853516e+00 6.071366071701049805e-01 5.541167736053466797e+00 1.867845654487609863e+00 5.541167736053466797e+00 4.401993751525878906e+00
6.532365417480468750e+01 1.758470153808593750e+01 1.558926010131835938e+01 1.758470153808593750e+01 6.030271148681640625e+01 2.250943756103515625e+01 1.558926010131835938e+01 2.250943756103515625e+01 9.914144134521484375e+01
-7.009584808349609375e+01 9.865118980407714844e+00 -3.173053264617919922e+00 9.865118980407714844e+00 -6.239597320556640625e+01 7.530275344848632812e+00 -3.173053264617919922e+00 7.530275344848632812e+00 -5.566329574584960938e+01
-2.525768089294433594e+01 1.128110408782958984e+01 -2.904901742935180664e+00 1.128110408782958984e+01 -1.658502960205078125e+01 -7.425855636596679688e+00 -2.904901742935180664e+00 -7.425855636596679688e+00 -3.117167663574218750e+01
-7.914924621582031250e-01 3.207386970520019531e+00 -1.340776062011718750e+01 3.207386970520019531e+00 -1.141604900360107422e+01 -8.850752830505371094e+00 -1.340776062011718750e+01 -8.850752830505371094e+00 -1.210442066192626953e+01
-4.945165157318115234e+00 1.327307796478271484e+01 -1.891468882560729980e+00 1.327307796478271484e+01 -5.383524894714355469e+00 1.939750671386718750e+01 -1.891468882560729980e+00 1.939750671386718750e+01 1.197630310058593750e+01
-4.493450164794921875e+01 8.180085420608520508e-01 -4.051689624786376953e+00 8.180085420608520508e-01 -2.641342544555664062e+01 -8.983042716979980469e+00 -4.051689624786376953e+00 -8.983042716979980469e+00 -3.096366882324218750e+01
-3.224671936035156250e+01 2.240019416809082031e+01 2.301831245422363281e+00 2.240019416809082031e+01 -1.815212631225585938e+01 1.074258708953857422e+01 2.301831245422363281e+00 1.074258708953857422e+01 -1.005382156372070312e+01
-2.556432533264160156e+01 6.101108551025390625e+00 1.544281005859375000e+01 6.101108551025390625e+00 -8.051670074462890625e+00 -6.850755691528320312e+00 1.544281005859375000e+01 -6.850755691528320312e+00 -2.104899978637695312e+01
-2.944710922241210938e+01 -5.074922561645507812e+00 -5.247431993484497070e-01 -5.074922561645507812e+00 5.208676338195800781e+00 -6.387241363525390625e+00 -5.247431993484497070e-01 -6.387241363525390625e+00 -1.126390647888183594e+01
-1.994386482238769531e+01 6.320745944976806641e+00 -2.667379856109619141e+00 6.320745944976806641e+00 -1.579890155792236328e+01 -9.189792722463607788e-02 -2.667379856109619141e+00 -9.189792722463607788e-02 -9.862993240356445312e+00
-2.465362548828125000e+01 8.802572250366210938e+00 -2.333109474182128906e+01 8.802572250366210938e+00 1.075725173950195312e+01 -6.422434329986572266e+00 -2.333109474182128906e+01 -6.422434329986572266e+00 -1.120875167846679688e+01
-4.132885360717773438e+01 -7.776198863983154297e+00 1.317422747611999512e+00 -7.776198863983154297e+00 -1.605976295471191406e+01 -1.947496175765991211e+00 1.317422747611999512e+00 -1.947496175765991211e+00 -2.355118179321289062e+01
-2.045456022024154663e-01 5.085157871246337891e+00 4.135746955871582031e+00 5.085157871246337891e+00 -9.241033554077148438e+00 1.025029301643371582e+00 4.135746955871582031e+00 1.025029301643371582e+00 -1.030423259735107422e+01
-4.642535150051116943e-01 -2.537703514099121094e+00 6.850754737854003906e+00 -2.537703514099121094e+00 -3.710482406616210938e+01 7.970172405242919922e+00 6.850754737854003906e+00 7.970172405242919922e+00 -2.727864837646484375e+01
9.957992434501647949e-01 8.429909348487854004e-01 -3.701969146728515625e+00 8.429909348487854004e-01 -6.304960250854492188e+00 -8.118318557739257812e+00 -3.701969146728515625e+00 -8.118318557739257812e+00 -4.633310317993164062e+00
-9.198026657104492188e+00 7.695704936981201172e+00 -1.635270881652832031e+01 7.695704936981201172e+00 7.663411140441894531e+00 1.222062969207763672e+01 -1.635270881652832031e+01 1.222062969207763672e+01 -3.747822999954223633e+00
-6.940806388854980469e+00 -6.389548778533935547e+00 8.940164446830749512e-01 -6.389548778533935547e+00 -4.555741310119628906e+00 -3.132127046585083008e+00 8.940164446830749512e-01 -3.132127046585083008e+00 -1.557019042968750000e+01
-1.007779240608215332e+00 -1.075378060340881348e+00 -1.679088783264160156e+01 -1.075378060340881348e+00 -2.619553375244140625e+01 -1.559898281097412109e+01 -1.679088783264160156e+01 -1.559898281097412109e+01 -6.154610633850097656e+00
-1.652981638908386230e+00 -1.680962181091308594e+01 -9.382533073425292969e+00 -1.680962181091308594e+01 3.935448169708251953e+00 -2.521919727325439453e+00 -9.382533073425292969e+00 -2.521919727325439453e+00 1.038982963562011719e+01
-3.438201904296875000e+01 1.484081077575683594e+01 1.595470786094665527e+00 1.484081077575683594e+01 -1.875656318664550781e+01 -5.432895183563232422e+00 1.595470786094665527e+00 -5.432895183563232422e+00 -2.114504432678222656e+01
-1.436503696441650391e+01 1.404749870300292969e+00 -9.633895874023437500e+00 1.404749870300292969e+00 -1.207069587707519531e+01 5.041597366333007812e+00 -9.633895874023437500e+00 5.041597366333007812e+00 6.055656433105468750e+00
-1.503211212158203125e+01 9.999177932739257812e+00 -1.340655994415283203e+01 9.999177932739257812e+00 4.444991588592529297e+00 -1.355369853973388672e+01 -1.340655994415283203e+01 -1.355369853973388672e+01 -8.986251831054687500e+00
-1.409070587158203125e+01 8.880942344665527344e+00 -1.085759735107421875e+01 8.880942344665527344e+00 5.588886737823486328e+00 -8.009085655212402344e+00 -1.085759735107421875e+01 -8.009085655212402344e+00 -3.032837486267089844e+01
-3.632459163665771484e+00 1.271714687347412109e+00 -2.095713806152343750e+01 1.271714687347412109e+00 -7.571450233459472656e+00 -1.119457149505615234e+01 -2.095713806152343750e+01 -1.119457149505615234e+01 -1.958349990844726562e+01
-2.391099371016025543e-02 -2.441541552543640137e-01 -2.065252214670181274e-01 -2.441541552543640137e-01 -2.230058860778808594e+01 -4.008384227752685547e+00 -2.065252214670181274e-01 -4.008384227752685547e+00 3.810176134109497070e+00
1.256347751617431641e+01 7.192887306213378906e+00 4.705983638763427734e+00 7.192887306213378906e+00 1.370669937133789062e+01 -5.035530567169189453e+00 4.705983638763427734e+00 -5.035530567169189453e+00 -3.200427627563476562e+01
-1.519252586364746094e+01 -1.504612827301025391e+01 2.186033964157104492e+00 -1.504612827301025391e+01 6.050795555114746094e+00 -4.846313476562500000e+00 2.186033964157104492e+00 -4.846313476562500000e+00 -1.912987899780273438e+01
-2.683785247802734375e+01 1.094610214233398438e+01 -1.236911392211914062e+01 1.094610214233398438e+01 -3.524415969848632812e+00 -6.481468677520751953e+00 -1.236911392211914062e+01 -6.481468677520751953e+00 -4.748397350311279297e+00
1.554644680023193359e+01 -3.677166938781738281e+00 3.901360511779785156e+00 -3.677166938781738281e+00 -9.549776077270507812e+00 -1.723605275154113770e+00 3.901360511779785156e+00 -1.723605275154113770e+00 1.217176723480224609e+01
-2.078199005126953125e+01 -5.022653102874755859e+00 -1.226699256896972656e+01 -5.022653102874755859e+00 -1.680246543884277344e+01 6.946638107299804688e+00 -1.226699256896972656e+01 6.946638107299804688e+00 -1.260404872894287109e+01
-2.073142242431640625e+01 2.597380399703979492e+00 7.663515567779541016e+00 2.597380399703979492e+00 -2.252495956420898438e+01 -4.647324085235595703e+00 7.663515567779541016e+00 -4.647324085235595703e+00 -1.297251892089843750e+01
-1.535483169555664062e+01 -3.912605047225952148e+00 -3.450110197067260742e+00 -3.912605047225952148e+00 -4.363648891448974609e+00 -4.813265323638916016e+00 -3.450110197067260742e+00 -4.813265323638916016e+00 1.132906818389892578e+01
-1.623783493041992188e+01 7.547933101654052734e+00 -6.204956531524658203e+00 7.547933101654052734e+00 3.349014043807983398e+00 5.877638339996337891e+00 -6.204956531524658203e+00 5.877638339996337891e+00 -2.576564407348632812e+01
3.703833818435668945e+00 -7.474987983703613281e+00 3.170874118804931641e+00 -7.474987983703613281e+00 -5.371809959411621094e+00 -1.931895017623901367e+00 3.170874118804931641e+00 -1.931895017623901367e+00 9.094588160514831543e-01
-3.064980697631835938e+01 -1.896618127822875977e+00 -3.962550640106201172e+00 -1.896618127822875977e+00 -1.301969146728515625e+01 1.338484859466552734e+01 -3.962550640106201172e+00 1.338484859466552734e+01 -2.607380676269531250e+01
-4.182296371459960938e+01 -5.508740425109863281e+00 1.393229103088378906e+01 -5.508740425109863281e+00 1.953182220458984375e+00 -1.462812328338623047e+01 1.393229103088378906e+01 -1.462812328338623047e+01 -1.261685371398925781e+01
-6.707909584045410156e+00 4.367535114288330078e+00 1.775992870330810547e+00 4.367535114288330078e+00 8.108512312173843384e-02 8.472472190856933594e+00 1.775992870330810547e+00 8.472472190856933594e+00 -1.035490989685058594e+01
-3.158069372177124023e+00 -1.558015108108520508e+00 -1.645153236389160156e+01 -1.558015108108520508e+00 -5.128841400146484375e+00 5.606980800628662109e+00 -1.645153236389160156e+01 5.606980800628662109e+00 -1.228051280975341797e+01
-1.594656944274902344e+01 -1.368318200111389160e-01 -3.829702854156494141e+00 -1.368318200111389160e-01 -4.575050830841064453e+00 5.364989757537841797e+00 -3.829702854156494141e+00 5.364989757537841797e+00 -2.634103202819824219e+01
-7.397508621215820312e+00 1.166764974594116211e+00 -6.272306919097900391e+00 1.166764974594116211e+00 9.125514626502990723e-01 -5.354394435882568359e+00 -6.272306919097900391e+00 -5.354394435882568359e+00 -3.872988820075988770e-01
-3.214324569702148438e+01 1.380306243896484375e+00 -1.268764019012451172e+01 1.380306243896484375e+00 3.707887887954711914e+00 -9.514245986938476562e+00 -1.268764019012451172e+01 -9.514245986938476562e+00 -4.085238456726074219e+00
-2.025948143005371094e+01 4.094417095184326172e+00 -4.640707746148109436e-02 4.094417095184326172e+00 7.129475593566894531e+00 2.026369571685791016e+00 -4.640707746148109436e-02 2.026369571685791016e+00 -3.190974235534667969e+00
-1.146000027656555176e+00 -6.740863323211669922e+00 -1.848585724830627441e+00 -6.740863323211669922e+00 -2.188162994384765625e+01 3.553346633911132812e+00 -1.848585724830627441e+00 3.553346633911132812e+00 -1.626922225952148438e+01
-1.447780132293701172e+01 2.534366369247436523e+00 -9.783467292785644531e+00 2.534366369247436523e+00 4.113440811634063721e-01 3.865196228027343750e+00 -9.783467292785644531e+00 3.865196228027343750e+00 -3.327031326293945312e+01
7.410679340362548828e+00 1.169839286804199219e+01 8.065409660339355469e+00 1.169839286804199219e+01 -1.615433311462402344e+01 -7.836400508880615234e+00 8.065409660339355469e+00 -7.836400508880615234e+00 -1.653569412231445312e+01
-3.177742767333984375e+01 8.639333724975585938e+00 -4.159772396087646484e+00 8.639333724975585938e+00 -1.715343856811523438e+01 2.703959941864013672e+00 -4.159772396087646484e+00 2.703959941864013672e+00 -1.461277008056640625e+00
-1.804107475280761719e+01 5.563534259796142578e+00 -2.018410921096801758e+00 5.563534259796142578e+00 1.318677544593811035e+00 -2.499332666397094727e+00 -2.018410921096801758e+00 -2.499332666397094727e+00 -2.219570922851562500e+01
-2.029018211364746094e+01 2.601461172103881836e+00 -2.504083633422851562e+00 2.601461172103881836e+00 -2.434302330017089844e+00 -8.128430247306823730e-01 -2.504083633422851562e+00 -8.128430247306823730e-01 -1.602814102172851562e+01
6.532365417480468750e+01 1.758470153808593750e+01 1.558926010131835938e+01 1.758470153808593750e+01 6.030271148681640625e+01 2.250943756103515625e+01 1.558926010131835938e+01 2.250943756103515625e+01 9.914144134521484375e+01
-4.395006942749023438e+01 -6.857872486114501953e+00 -9.221517562866210938e+00 -6.857872486114501953e+00 -2.818041610717773438e+01 -3.762799739837646484e+00 -9.221517562866210938e+00 -3.762799739837646484e+00 -2.282900810241699219e+01
-5.543548583984375000e+01 3.606570959091186523e+00 -6.847702026367187500e+00 3.606570959091186523e+00 -5.824267196655273438e+01 7.168524742126464844e+00 -6.847702026367187500e+00 7.168524742126464844e+00 -4.091485977172851562e+01
-5.817279434204101562e+01 3.377711296081542969e+00 -3.286408483982086182e-01 3.377711296081542969e+00 -2.764895248413085938e+01 -3.714287996292114258e+00 -3.286408483982086182e-01 -3.714287996292114258e+00 -2.508386039733886719e+01
-1.959936141967773438e+00 5.706771373748779297e+00 -1.062062644958496094e+01 5.706771373748779297e+00 2.762131690979003906e+01 -6.097221970558166504e-01 -1.062062644958496094e+01 -6.097221970558166504e-01 1.406889724731445312e+01
-3.429113006591796875e+01 6.137352466583251953e+00 -8.995933532714843750e+00 6.137352466583251953e+00 5.488267898559570312e+00 1.390516948699951172e+01 -8.995933532714843750e+00 1.390516948699951172e+01 3.364442586898803711e-01
-5.005474853515625000e+01 -1.406574153900146484e+01 -1.148032474517822266e+01 -1.406574153900146484e+01 -1.964168930053710938e+01 -1.287415409088134766e+01 -1.148032474517822266e+01 -1.287415409088134766e+01 -5.470623397827148438e+01
-3.233308410644531250e+01 4.089114189147949219e+00 -2.462137699127197266e+00 4.089114189147949219e+00 -2.130632209777832031e+01 2.148567008972167969e+01 -2.462137699127197266e+00 2.148567008972167969e+01 -1.182653141021728516e+01
-4.331108856201171875e+01 5.301955223083496094e+00 -1.380515098571777344e+01 5.301955223083496094e+00 -3.727455902099609375e+01 1.129653644561767578e+01 -1.380515098571777344e+01 1.129653644561767578e+01 -2.248835182189941406e+01
-2.467134666442871094e+01 -4.788525104522705078e+00 -1.381694889068603516e+01 -4.788525104522705078e+00 -9.307647705078125000e+00 -1.945785403251647949e+00 -1.381694889068603516e+01 -1.945785403251647949e+00 -7.970637798309326172e+00
-4.363046264648437500e+01 8.693896293640136719e+00 -2.089000225067138672e+00 8.693896293640136719e+00 -3.028464317321777344e+01 -1.712051010131835938e+01 -2.089000225067138672e+00 -1.712051010131835938e+01 -3.700226593017578125e+01
-7.349002838134765625e+00 8.471477031707763672e-01 5.403986930847167969e+00 8.471477031707763672e-01 -2.542667579650878906e+01 -1.412346458435058594e+01 5.403986930847167969e+00 -1.412346458435058594e+01 -3.036142349243164062e+00
-1.695447731018066406e+01 3.189301729202270508e+00 -8.964076042175292969e+00 3.189301729202270508e+00 -9.655776977539062500e+00 8.754121780395507812e+00 -8.964076042175292969e+00 8.754121780395507812e+00 -2.969873237609863281e+01
-1.814346504211425781e+01 -6.815020084381103516e+00 -7.743403434753417969e+00 -6.815020084381103516e+00 -1.334518909454345703e+01 -1.882821846008300781e+01 -7.743403434753417969e+00 -1.882821846008300781e+01 -6.270008468627929688e+01
-2.211590957641601562e+01 1.436661243438720703e+01 6.899344921112060547e+00 1.436661243438720703e+01 -2.432461166381835938e+01 4.639624118804931641e+00 6.899344921112060547e+00 4.639624118804931641e+00 -2.512166595458984375e+01
-2.485664558410644531e+01 -2.466040611267089844e+01 -5.437851548194885254e-01 -2.466040611267089844e+01 -4.764982604980468750e+01 -2.901651620864868164e+00 -5.437851548194885254e-01 -2.901651620864868164e+00 -5.447407245635986328e+00
-8.844214439392089844e+00 2.035144996643066406e+01 -1.560337781906127930e+00 2.035144996643066406e+01 -2.403421401977539062e+01 8.794857025146484375e+00 -1.560337781906127930e+00 8.794857025146484375e+00 -2.418510818481445312e+01
-3.729268646240234375e+01 1.185717773437500000e+01 -1.594561195373535156e+01 1.185717773437500000e+01 -3.252810668945312500e+01 2.228129386901855469e+00 -1.594561195373535156e+01 2.228129386901855469e+00 -1.382598304748535156e+01
-1.967496299743652344e+01 -5.184378623962402344e+00 -1.945619583129882812e+00 -5.184378623962402344e+00 -3.959990310668945312e+01 -1.676057243347167969e+01 -1.945619583129882812e+00 -1.676057243347167969e+01 -1.816047859191894531e+01
-1.228882312774658203e+01 -7.233946323394775391e+00 -8.792847633361816406e+00 -7.233946323394775391e+00 -2.555207967758178711e+00 -9.853937149047851562e+00 -8.792847633361816406e+00 -9.853937149047851562e+00 -2.891210174560546875e+01
-3.316099929809570312e+01 7.191318511962890625e+00 -6.387525081634521484e+00 7.191318511962890625e+00 -2.537895011901855469e+01 -5.604897499084472656e+00 -6.387525081634521484e+00 -5.604897499084472656e+00 -4.208519744873046875e+01
-2.733884239196777344e+01 -7.142943859100341797e+00 -1.576442432403564453e+01 -7.142943859100341797e+00 -1.972231101989746094e+01 1.356513142585754395e+00 -1.576442432403564453e+01 1.356513142585754395e+00 -4.885537147521972656e+00
-3.437763214111328125e+01 4.770637512207031250e+00 1.156931018829345703e+01 4.770637512207031250e+00 -3.011513137817382812e+01 -1.410016155242919922e+01 1.156931018829345703e+01 -1.410016155242919922e+01 -3.267177200317382812e+01
-6.943607330322265625e+01 6.731232643127441406e+00 1.841476821899414062e+01 6.731232643127441406e+00 -2.606596374511718750e+01 8.721038818359375000e+00 1.841476821899414062e+01 8.721038818359375000e+00 3.422504186630249023e+00
1.055090713500976562e+01 -1.113300991058349609e+01 3.774337768554687500e+00 -1.113300991058349609e+01 -3.580627441406250000e+01 5.164270401000976562e+00 3.774337768554687500e+00 5.164270401000976562e+00 -4.707014083862304688e+00
-2.700337409973144531e+01 1.538622677326202393e-01 6.689480304718017578e+00 1.538622677326202393e-01 -1.776227951049804688e+01 -5.979066371917724609e+00 6.689480304718017578e+00 -5.979066371917724609e+00 -2.330342674255371094e+01
-1.496356201171875000e+01 4.407180845737457275e-01 8.268692970275878906e+00 4.407180845737457275e-01 -9.082229614257812500e+00 -4.683627605438232422e+00 8.268692970275878906e+00 -4.683627605438232422e+00 -4.276924133300781250e+01
-2.373611640930175781e+01 1.045216369628906250e+01 8.427120208740234375e+00 1.045216369628906250e+01 -1.600958633422851562e+01 8.818367004394531250e+00 8.427120208740234375e+00 8.818367004394531250e+00 -2.991275787353515625e+01
-5.503664016723632812e+00 2.753452062606811523e+00 -3.657532930374145508e+00 2.753452062606811523e+00 -2.318654823303222656e+01 -2.348622560501098633e+00 -3.657532930374145508e+00 -2.348622560501098633e+00 -1.465065574645996094e+01
-2.936670112609863281e+01 1.885689926147460938e+01 -1.497142791748046875e+01 1.885689926147460938e+01 -1.242679595947265625e+01 -7.365322589874267578e+00 -1.497142791748046875e+01 -7.365322589874267578e+00 -2.212661361694335938e+01
-1.147523212432861328e+01 -4.727740764617919922e+00 -2.238624191284179688e+01 -4.727740764617919922e+00 -3.269630050659179688e+01 -1.442428588867187500e+01 -2.238624191284179688e+01 -1.442428588867187500e+01 -1.755938148498535156e+01
-2.610371208190917969e+01 7.743394374847412109e-01 -7.403192996978759766e+00 7.743394374847412109e-01 -2.842745590209960938e+01 8.516321182250976562e+00 -7.403192996978759766e+00 8.516321182250976562e+00 -2.758692741394042969e+01
-1.687268257141113281e+01 6.801747798919677734e+00 7.211726665496826172e+00 6.801747798919677734e+00 -4.656355285644531250e+01 -5.035896778106689453e+00 7.211726665496826172e+00 -5.035896778106689453e+00 -4.527678298950195312e+01