1.871199989318847656e+01 0.000000000000000000e+00 0.000000000000000000e+00 -4.850000143051147461e-01 1.942700004577636719e+01 0.000000000000000000e+00 -5.249999761581420898e-01 -2.709999978542327881e-01 1.871800041198730469e+01
1.965900039672851562e+01 0.000000000000000000e+00 0.000000000000000000e+00 2.440000027418136597e-01 1.935899925231933594e+01 0.000000000000000000e+00 8.699999749660491943e-02 -4.889999926090240479e-01 1.890600013732910156e+01
1.912599945068359375e+01 0.000000000000000000e+00 0.000000000000000000e+00 1.959999948740005493e-01 1.874200057983398438e+01 0.000000000000000000e+00 -4.070000052452087402e-01 -5.059999823570251465e-01 1.920800018310546875e+01
1.954800033569335938e+01 0.000000000000000000e+00 0.000000000000000000e+00 2.419999986886978149e-01 1.925000000000000000e+01 0.000000000000000000e+00 8.600000292062759399e-02 -4.860000014305114746e-01 1.879999923706054688e+01
1.903800010681152344e+01 0.000000000000000000e+00 0.000000000000000000e+00 -4.939999878406524658e-01 1.976600074768066406e+01 0.000000000000000000e+00 -5.350000262260437012e-01 -2.759999930858612061e-01 1.904400062561035156e+01
1.909799957275390625e+01 0.000000000000000000e+00 0.000000000000000000e+00 -5.120000243186950684e-01 1.956500053405761719e+01 0.000000000000000000e+00 -3.529999852180480957e-01 -3.950000107288360596e-01 1.939500045776367188e+01
1.935799980163574219e+01 0.000000000000000000e+00 0.000000000000000000e+00 -5.189999938011169434e-01 1.983099937438964844e+01 0.000000000000000000e+00 -3.569999933242797852e-01 -4.009999930858612061e-01 1.965900039672851562e+01
1.944799995422363281e+01 0.000000000000000000e+00 0.000000000000000000e+00 0.000000000000000000e+00 1.944799995422363281e+01 0.000000000000000000e+00 0.000000000000000000e+00 0.000000000000000000e+00 1.944799995422363281e+01
1.902499961853027344e+01 0.000000000000000000e+00 0.000000000000000000e+00 -4.930000007152557373e-01 1.975300025939941406e+01 0.000000000000000000e+00 -5.339999794960021973e-01 -2.759999930858612061e-01 1.903100013732910156e+01
1.895899963378906250e+01 0.000000000000000000e+00 0.000000000000000000e+00 0.000000000000000000e+00 1.895899963378906250e+01 0.000000000000000000e+00 0.000000000000000000e+00 0.000000000000000000e+00 1.895899963378906250e+01
1.918000030517578125e+01 0.000000000000000000e+00 0.000000000000000000e+00 -5.139999985694885254e-01 1.964900016784667969e+01 0.000000000000000000e+00 -3.540000021457672119e-01 -3.970000147819519043e-01 1.947900009155273438e+01
1.909000015258789062e+01 0.000000000000000000e+00 0.000000000000000000e+00 -5.120000243186950684e-01 1.955699920654296875e+01 0.000000000000000000e+00 -3.529999852180480957e-01 -3.950000107288360596e-01 1.938699913024902344e+01
1.884300041198730469e+01 0.000000000000000000e+00 0.000000000000000000e+00 -4.889999926090240479e-01 1.956299972534179688e+01 0.000000000000000000e+00 -5.289999842643737793e-01 -2.730000019073486328e-01 1.884900093078613281e+01
1.911700057983398438e+01 0.000000000000000000e+00 0.000000000000000000e+00 3.140000104904174805e-01 1.913299942016601562e+01 0.000000000000000000e+00 -1.260000020265579224e-01 5.370000004768371582e-01 1.906399917602539062e+01
1.871500015258789062e+01 0.000000000000000000e+00 0.000000000000000000e+00 1.190000027418136597e-01 1.855999946594238281e+01 0.000000000000000000e+00 3.009999990463256836e-01 -9.499999880790710449e-02 1.929199981689453125e+01
1.896100044250488281e+01 0.000000000000000000e+00 0.000000000000000000e+00 1.209999993443489075e-01 1.880400085449218750e+01 0.000000000000000000e+00 3.050000071525573730e-01 -9.600000083446502686e-02 1.954500007629394531e+01
1.865200042724609375e+01 0.000000000000000000e+00 0.000000000000000000e+00 -3.810000121593475342e-01 1.923900032043457031e+01 0.000000000000000000e+00 -4.600000083446502686e-01 -5.799999833106994629e-02 1.900000000000000000e+01
1.907699966430664062e+01 0.000000000000000000e+00 0.000000000000000000e+00 0.000000000000000000e+00 1.907699966430664062e+01 0.000000000000000000e+00 0.000000000000000000e+00 0.000000000000000000e+00 1.907699966430664062e+01
1.886300086975097656e+01 0.000000000000000000e+00 0.000000000000000000e+00 -5.040000081062316895e-01 1.937199974060058594e+01 0.000000000000000000e+00 2.000000094994902611e-03 -2.980000078678131104e-01 1.968499946594238281e+01
1.914999961853027344e+01 0.000000000000000000e+00 0.000000000000000000e+00 3.149999976158142090e-01 1.916600036621093750e+01 0.000000000000000000e+00 -1.260000020265579224e-01 5.379999876022338867e-01 1.909700012207031250e+01
1.893499946594238281e+01 0.000000000000000000e+00 0.000000000000000000e+00 3.599999845027923584e-02 1.897200012207031250e+01 0.000000000000000000e+00 4.800000041723251343e-02 2.329999953508377075e-01 1.884600067138671875e+01
1.888899993896484375e+01 0.000000000000000000e+00 0.000000000000000000e+00 3.599999845027923584e-02 1.892600059509277344e+01 0.000000000000000000e+00 4.800000041723251343e-02 2.329999953508377075e-01 1.879999923706054688e+01
1.925300025939941406e+01 0.000000000000000000e+00 0.000000000000000000e+00 2.389999926090240479e-01 1.895999908447265625e+01 0.000000000000000000e+00 8.500000089406967163e-02 -4.790000021457672119e-01 1.851600074768066406e+01
1.890600013732910156e+01 0.000000000000000000e+00 0.000000000000000000e+00 -5.059999823570251465e-01 1.941600036621093750e+01 0.000000000000000000e+00 2.000000094994902611e-03 -2.980000078678131104e-01 1.972999954223632812e+01
1.935600090026855469e+01 0.000000000000000000e+00 0.000000000000000000e+00 3.700000047683715820e-02 1.939500045776367188e+01 0.000000000000000000e+00 4.899999871850013733e-02 2.380000054836273193e-01 1.926499938964843750e+01
1.907200050354003906e+01 0.000000000000000000e+00 0.000000000000000000e+00 -4.950000047683715820e-01 1.980100059509277344e+01 0.000000000000000000e+00 -5.360000133514404297e-01 -2.770000100135803223e-01 1.907799911499023438e+01
1.902400016784667969e+01 0.000000000000000000e+00 0.000000000000000000e+00 1.209999993443489075e-01 1.886599922180175781e+01 0.000000000000000000e+00 3.059999942779541016e-01 -9.700000286102294922e-02 1.961000061035156250e+01
1.943700027465820312e+01 0.000000000000000000e+00 0.000000000000000000e+00 1.410000026226043701e-01 1.985300064086914062e+01 0.000000000000000000e+00 -5.210000276565551758e-01 5.289999842643737793e-01 1.919000053405761719e+01
1.927300071716308594e+01 0.000000000000000000e+00 0.000000000000000000e+00 1.400000005960464478e-01 1.968499946594238281e+01 0.000000000000000000e+00 -5.159999728202819824e-01 5.249999761581420898e-01 1.902799987792968750e+01
1.927799987792968750e+01 0.000000000000000000e+00 0.000000000000000000e+00 0.000000000000000000e+00 1.927799987792968750e+01 0.000000000000000000e+00 0.000000000000000000e+00 0.000000000000000000e+00 1.927799987792968750e+01
1.891699981689453125e+01 0.000000000000000000e+00 0.000000000000000000e+00 -4.909999966621398926e-01 1.964100074768066406e+01 0.000000000000000000e+00 -5.310000181198120117e-01 -2.739999890327453613e-01 1.892300033569335938e+01
1.936300086975097656e+01 0.000000000000000000e+00 0.000000000000000000e+00 3.179999887943267822e-01 1.937999916076660156e+01 0.000000000000000000e+00 -1.280000060796737671e-01 5.440000295639038086e-01 1.930900001525878906e+01
1.879899978637695312e+01 0.000000000000000000e+00 0.000000000000000000e+00 3.089999854564666748e-01 1.881500053405761719e+01 0.000000000000000000e+00 -1.239999979734420776e-01 5.279999971389770508e-01 1.874699974060058594e+01
1.937599945068359375e+01 0.000000000000000000e+00 0.000000000000000000e+00 3.700000047683715820e-02 1.941399955749511719e+01 0.000000000000000000e+00 4.899999871850013733e-02 2.389999926090240479e-01 1.928499984741210938e+01
1.955999946594238281e+01 0.000000000000000000e+00 0.000000000000000000e+00 2.419999986886978149e-01 1.926199913024902344e+01 0.000000000000000000e+00 8.600000292062759399e-02 -4.860000014305114746e-01 1.881100082397460938e+01
1.868899917602539062e+01 0.000000000000000000e+00 0.000000000000000000e+00 -5.009999871253967285e-01 1.914599990844726562e+01 0.000000000000000000e+00 -3.449999988079071045e-01 -3.869999945163726807e-01 1.897999954223632812e+01
1.924799919128417969e+01 0.000000000000000000e+00 0.000000000000000000e+00 0.000000000000000000e+00 1.924799919128417969e+01 0.000000000000000000e+00 0.000000000000000000e+00 0.000000000000000000e+00 1.924799919128417969e+01
1.936000061035156250e+01 0.000000000000000000e+00 0.000000000000000000e+00 0.000000000000000000e+00 1.936000061035156250e+01 0.000000000000000000e+00 0.000000000000000000e+00 0.000000000000000000e+00 1.936000061035156250e+01
1.909900093078613281e+01 0.000000000000000000e+00 0.000000000000000000e+00 3.599999845027923584e-02 1.913699913024902344e+01 0.000000000000000000e+00 4.800000041723251343e-02 2.349999994039535522e-01 1.900900077819824219e+01
1.870499992370605469e+01 0.000000000000000000e+00 0.000000000000000000e+00 1.190000027418136597e-01 1.854999923706054688e+01 0.000000000000000000e+00 3.009999990463256836e-01 -9.499999880790710449e-02 1.928199958801269531e+01
1.875300025939941406e+01 0.000000000000000000e+00 0.000000000000000000e+00 -3.829999864101409912e-01 1.934300041198730469e+01 0.000000000000000000e+00 -4.629999995231628418e-01 -5.799999833106994629e-02 1.910300064086914062e+01
1.892200088500976562e+01 0.000000000000000000e+00 0.000000000000000000e+00 0.000000000000000000e+00 1.892200088500976562e+01 0.000000000000000000e+00 0.000000000000000000e+00 0.000000000000000000e+00 1.892200088500976562e+01
1.926799964904785156e+01 0.000000000000000000e+00 0.000000000000000000e+00 1.969999969005584717e-01 1.888100051879882812e+01 0.000000000000000000e+00 -4.099999964237213135e-01 -5.099999904632568359e-01 1.935000038146972656e+01
1.878199958801269531e+01 0.000000000000000000e+00 0.000000000000000000e+00 1.199999973177909851e-01 1.862599945068359375e+01 0.000000000000000000e+00 3.019999861717224121e-01 -9.499999880790710449e-02 1.936100006103515625e+01
1.884499931335449219e+01 0.000000000000000000e+00 0.000000000000000000e+00 1.199999973177909851e-01 1.868899917602539062e+01 0.000000000000000000e+00 3.030000030994415283e-01 -9.600000083446502686e-02 1.942600059509277344e+01
1.954199981689453125e+01 0.000000000000000000e+00 0.000000000000000000e+00 3.210000097751617432e-01 1.955900001525878906e+01 0.000000000000000000e+00 -1.289999932050704956e-01 5.490000247955322266e-01 1.948800086975097656e+01
1.860600090026855469e+01 0.000000000000000000e+00 0.000000000000000000e+00 -4.819999933242797852e-01 1.931800079345703125e+01 0.000000000000000000e+00 -5.220000147819519043e-01 -2.700000107288360596e-01 1.861199951171875000e+01
1.896699905395507812e+01 0.000000000000000000e+00 0.000000000000000000e+00 3.599999845027923584e-02 1.900499916076660156e+01 0.000000000000000000e+00 4.800000041723251343e-02 2.339999973773956299e-01 1.887800025939941406e+01
1.885799980163574219e+01 0.000000000000000000e+00 0.000000000000000000e+00 -5.040000081062316895e-01 1.936599922180175781e+01 0.000000000000000000e+00 2.000000094994902611e-03 -2.980000078678131104e-01 1.967900085449218750e+01
1.901099967956542969e+01 0.000000000000000000e+00 0.000000000000000000e+00 1.940000057220458984e-01 1.862999916076660156e+01 0.000000000000000000e+00 -4.050000011920928955e-01 -5.030000209808349609e-01 1.909300041198730469e+01
1.930599975585937500e+01 0.000000000000000000e+00 0.000000000000000000e+00 3.170000016689300537e-01 1.932200050354003906e+01 0.000000000000000000e+00 -1.270000040531158447e-01 5.429999828338623047e-01 1.925200080871582031e+01
1.840600013732910156e+01 0.000000000000000000e+00 0.000000000000000000e+00 -4.939999878406524658e-01 1.885600090026855469e+01 0.000000000000000000e+00 -3.400000035762786865e-01 -3.810000121593475342e-01 1.869199943542480469e+01
1.929400062561035156e+01 0.000000000000000000e+00 0.000000000000000000e+00 1.230000033974647522e-01 1.913500022888183594e+01 0.000000000000000000e+00 3.109999895095825195e-01 -9.799999743700027466e-02 1.988899993896484375e+01
1.899200057983398438e+01 0.000000000000000000e+00 0.000000000000000000e+00 -5.090000033378601074e-01 1.945700073242187500e+01 0.000000000000000000e+00 -3.510000109672546387e-01 -3.930000066757202148e-01 1.928800010681152344e+01
1.950699996948242188e+01 0.000000000000000000e+00 0.000000000000000000e+00 3.199999928474426270e-01 1.952300071716308594e+01 0.000000000000000000e+00 -1.289999932050704956e-01 5.479999780654907227e-01 1.945299911499023438e+01
1.935400009155273438e+01 0.000000000000000000e+00 0.000000000000000000e+00 3.179999887943267822e-01 1.937000083923339844e+01 0.000000000000000000e+00 -1.280000060796737671e-01 5.440000295639038086e-01 1.929999923706054688e+01
1.923999977111816406e+01 0.000000000000000000e+00 0.000000000000000000e+00 3.160000145435333252e-01 1.925699996948242188e+01 0.000000000000000000e+00 -1.270000040531158447e-01 5.410000085830688477e-01 1.918700027465820312e+01
1.967399978637695312e+01 0.000000000000000000e+00 0.000000000000000000e+00 2.440000027418136597e-01 1.937400054931640625e+01 0.000000000000000000e+00 8.699999749660491943e-02 -4.889999926090240479e-01 1.892099952697753906e+01
1.880200004577636719e+01 0.000000000000000000e+00 0.000000000000000000e+00 1.199999973177909851e-01 1.864599990844726562e+01 0.000000000000000000e+00 3.030000030994415283e-01 -9.600000083446502686e-02 1.938199996948242188e+01
1.936100006103515625e+01 0.000000000000000000e+00 0.000000000000000000e+00 3.700000047683715820e-02 1.939999961853027344e+01 0.000000000000000000e+00 4.899999871850013733e-02 2.389999926090240479e-01 1.927000045776367188e+01
1.886300086975097656e+01 0.000000000000000000e+00 0.000000000000000000e+00 1.199999973177909851e-01 1.870700073242187500e+01 0.000000000000000000e+00 3.039999902248382568e-01 -9.600000083446502686e-02 1.944400024414062500e+01
1.915999984741210938e+01 0.000000000000000000e+00 0.000000000000000000e+00 1.959999948740005493e-01 1.877499961853027344e+01 0.000000000000000000e+00 -4.079999923706054688e-01 -5.070000290870666504e-01 1.924200057983398438e+01
1.939399909973144531e+01 0.000000000000000000e+00 0.000000000000000000e+00 0.000000000000000000e+00 1.939399909973144531e+01 0.000000000000000000e+00 0.000000000000000000e+00 0.000000000000000000e+00 1.939399909973144531e+01
1.910499954223632812e+01 0.000000000000000000e+00 0.000000000000000000e+00 -4.950000047683715820e-01 1.983499908447265625e+01 0.000000000000000000e+00 -5.360000133514404297e-01 -2.770000100135803223e-01 1.911100006103515625e+01
1.880800056457519531e+01 0.000000000000000000e+00 0.000000000000000000e+00 3.089999854564666748e-01 1.882399940490722656e+01 0.000000000000000000e+00 -1.239999979734420776e-01 5.289999842643737793e-01 1.875600051879882812e+01
1.923600006103515625e+01 0.000000000000000000e+00 0.000000000000000000e+00 3.700000047683715820e-02 1.927400016784667969e+01 0.000000000000000000e+00 4.899999871850013733e-02 2.370000034570693970e-01 1.914500045776367188e+01
1.899799919128417969e+01 0.000000000000000000e+00 0.000000000000000000e+00 0.000000000000000000e+00 1.899799919128417969e+01 0.000000000000000000e+00 0.000000000000000000e+00 0.000000000000000000e+00 1.899799919128417969e+01
1.895999908447265625e+01 0.000000000000000000e+00 0.000000000000000000e+00 3.599999845027923584e-02 1.899799919128417969e+01 0.000000000000000000e+00 4.800000041723251343e-02 2.339999973773956299e-01 1.887100028991699219e+01
1.852700042724609375e+01 0.000000000000000000e+00 0.000000000000000000e+00 -3.790000081062316895e-01 1.910899925231933594e+01 0.000000000000000000e+00 -4.569999873638153076e-01 -5.700000002980232239e-02 1.887199974060058594e+01
1.915399932861328125e+01 0.000000000000000000e+00 0.000000000000000000e+00 0.000000000000000000e+00 1.915399932861328125e+01 0.000000000000000000e+00 0.000000000000000000e+00 0.000000000000000000e+00 1.915399932861328125e+01
1.919700050354003906e+01 0.000000000000000000e+00 0.000000000000000000e+00 0.000000000000000000e+00 1.919700050354003906e+01 0.000000000000000000e+00 0.000000000000000000e+00 0.000000000000000000e+00 1.919700050354003906e+01
1.934099960327148438e+01 0.000000000000000000e+00 0.000000000000000000e+00 1.410000026226043701e-01 1.975399971008300781e+01 0.000000000000000000e+00 -5.180000066757202148e-01 5.260000228881835938e-01 1.909499931335449219e+01
1.915800094604492188e+01 0.000000000000000000e+00 0.000000000000000000e+00 1.389999985694885254e-01 1.956800079345703125e+01 0.000000000000000000e+00 -5.130000114440917969e-01 5.210000276565551758e-01 1.891500091552734375e+01
1.938400077819824219e+01 0.000000000000000000e+00 0.000000000000000000e+00 1.979999989271163940e-01 1.899500083923339844e+01 0.000000000000000000e+00 -4.129999876022338867e-01 -5.130000114440917969e-01 1.946699905395507812e+01
1.904700088500976562e+01 0.000000000000000000e+00 0.000000000000000000e+00 -5.090000033378601074e-01 1.955999946594238281e+01 0.000000000000000000e+00 2.000000094994902611e-03 -3.009999990463256836e-01 1.987599945068359375e+01
1.924699974060058594e+01 0.000000000000000000e+00 0.000000000000000000e+00 -5.159999728202819824e-01 1.971800041198730469e+01 0.000000000000000000e+00 -3.549999892711639404e-01 -3.980000019073486328e-01 1.954700088500976562e+01
1.905100059509277344e+01 0.000000000000000000e+00 0.000000000000000000e+00 -3.889999985694885254e-01 1.964999961853027344e+01 0.000000000000000000e+00 -4.699999988079071045e-01 -5.900000035762786865e-02 1.940600013732910156e+01
1.925499916076660156e+01 0.000000000000000000e+00 0.000000000000000000e+00 3.160000145435333252e-01 1.927199935913085938e+01 0.000000000000000000e+00 -1.270000040531158447e-01 5.410000085830688477e-01 1.920199966430664062e+01
1.869499969482421875e+01 0.000000000000000000e+00 0.000000000000000000e+00 0.000000000000000000e+00 1.869499969482421875e+01 0.000000000000000000e+00 0.000000000000000000e+00 0.000000000000000000e+00 1.869499969482421875e+01
1.899699974060058594e+01 0.000000000000000000e+00 0.000000000000000000e+00 1.209999993443489075e-01 1.884000015258789062e+01 0.000000000000000000e+00 3.059999942779541016e-01 -9.700000286102294922e-02 1.958300018310546875e+01
1.922800064086914062e+01 0.000000000000000000e+00 0.000000000000000000e+00 1.400000005960464478e-01 1.963899993896484375e+01 0.000000000000000000e+00 -5.149999856948852539e-01 5.230000019073486328e-01 1.898399925231933594e+01
1.882099914550781250e+01 0.000000000000000000e+00 0.000000000000000000e+00 1.920000016689300537e-01 1.844300079345703125e+01 0.000000000000000000e+00 -4.009999930858612061e-01 -4.979999959468841553e-01 1.890200042724609375e+01
1.877000045776367188e+01 0.000000000000000000e+00 0.000000000000000000e+00 -3.840000033378601074e-01 1.936000061035156250e+01 0.000000000000000000e+00 -4.629999995231628418e-01 -5.799999833106994629e-02 1.912000083923339844e+01
1.896999931335449219e+01 0.000000000000000000e+00 0.000000000000000000e+00 -4.920000135898590088e-01 1.969499969482421875e+01 0.000000000000000000e+00 -5.329999923706054688e-01 -2.750000059604644775e-01 1.897599983215332031e+01
1.931800079345703125e+01 0.000000000000000000e+00 0.000000000000000000e+00 1.979999989271163940e-01 1.893000030517578125e+01 0.000000000000000000e+00 -4.110000133514404297e-01 -5.109999775886535645e-01 1.940099906921386719e+01
1.939100074768066406e+01 0.000000000000000000e+00 0.000000000000000000e+00 1.979999989271163940e-01 1.900200080871582031e+01 0.000000000000000000e+00 -4.129999876022338867e-01 -5.130000114440917969e-01 1.947400093078613281e+01
1.898800086975097656e+01 0.000000000000000000e+00 0.000000000000000000e+00 -5.080000162124633789e-01 1.950000000000000000e+01 0.000000000000000000e+00 2.000000094994902611e-03 -3.000000119209289551e-01 1.981500053405761719e+01
1.971199989318847656e+01 0.000000000000000000e+00 0.000000000000000000e+00 2.020000070333480835e-01 1.931599998474121094e+01 0.000000000000000000e+00 -4.199999868869781494e-01 -5.220000147819519043e-01 1.979599952697753906e+01
1.890200042724609375e+01 0.000000000000000000e+00 0.000000000000000000e+00 3.599999845027923584e-02 1.893899917602539062e+01 0.000000000000000000e+00 4.800000041723251343e-02 2.329999953508377075e-01 1.881299972534179688e+01
1.908699989318847656e+01 0.000000000000000000e+00 0.000000000000000000e+00 -4.950000047683715820e-01 1.981599998474121094e+01 0.000000000000000000e+00 -5.360000133514404297e-01 -2.770000100135803223e-01 1.909300041198730469e+01
1.974399948120117188e+01 0.000000000000000000e+00 0.000000000000000000e+00 2.450000047683715820e-01 1.944300079345703125e+01 0.000000000000000000e+00 8.699999749660491943e-02 -4.909999966621398926e-01 1.898800086975097656e+01
1.954199981689453125e+01 0.000000000000000000e+00 0.000000000000000000e+00 2.419999986886978149e-01 1.924399948120117188e+01 0.000000000000000000e+00 8.600000292062759399e-02 -4.860000014305114746e-01 1.879400062561035156e+01
1.924500083923339844e+01 0.000000000000000000e+00 0.000000000000000000e+00 3.700000047683715820e-02 1.928300094604492188e+01 0.000000000000000000e+00 4.899999871850013733e-02 2.370000034570693970e-01 1.915500068664550781e+01
1.817000007629394531e+01 0.000000000000000000e+00 0.000000000000000000e+00 1.860000044107437134e-01 1.780599975585937500e+01 0.000000000000000000e+00 -3.869999945163726807e-01 -4.810000061988830566e-01 1.824799919128417969e+01
1.848299980163574219e+01 0.000000000000000000e+00 0.000000000000000000e+00 1.180000007152557373e-01 1.832999992370605469e+01 0.000000000000000000e+00 2.980000078678131104e-01 -9.399999678134918213e-02 1.905299949645996094e+01
1.867300033569335938e+01 0.000000000000000000e+00 0.000000000000000000e+00 3.070000112056732178e-01 1.868899917602539062e+01 0.000000000000000000e+00 -1.230000033974647522e-01 5.249999761581420898e-01 1.862199974060058594e+01
1.865500068664550781e+01 0.000000000000000000e+00 0.000000000000000000e+00 1.190000027418136597e-01 1.850000000000000000e+01 0.000000000000000000e+00 3.000000119209289551e-01 -9.499999880790710449e-02 1.922999954223632812e+01
1.907999992370605469e+01 0.000000000000000000e+00 0.000000000000000000e+00 3.599999845027923584e-02 1.911700057983398438e+01 0.000000000000000000e+00 4.800000041723251343e-02 2.349999994039535522e-01 1.898999977111816406e+01
1.908600044250488281e+01 0.000000000000000000e+00 0.000000000000000000e+00 1.389999985694885254e-01 1.949399948120117188e+01 0.000000000000000000e+00 -5.109999775886535645e-01 5.199999809265136719e-01 1.884399986267089844e+01
1.879500007629394531e+01 0.000000000000000000e+00 0.000000000000000000e+00 -5.030000209808349609e-01 1.930200004577636719e+01 0.000000000000000000e+00 2.000000094994902611e-03 -2.969999909400939941e-01 1.961400032043457031e+01
1.917499923706054688e+01 0.000000000000000000e+00 0.000000000000000000e+00 1.959999948740005493e-01 1.879000091552734375e+01 0.000000000000000000e+00 -4.079999923706054688e-01 -5.070000290870666504e-01 1.925699996948242188e+01
1.859300041198730469e+01 0.000000000000000000e+00 0.000000000000000000e+00 1.350000053644180298e-01 1.898999977111816406e+01 0.000000000000000000e+00 -4.979999959468841553e-01 5.059999823570251465e-01 1.835700035095214844e+01
1.898699951171875000e+01 0.000000000000000000e+00 0.000000000000000000e+00 -5.090000033378601074e-01 1.945100021362304688e+01 0.000000000000000000e+00 -3.510000109672546387e-01 -3.930000066757202148e-01 1.928199958801269531e+01
1.920100021362304688e+01 0.000000000000000000e+00 0.000000000000000000e+00 3.149999976158142090e-01 1.921800041198730469e+01 0.000000000000000000e+00 -1.270000040531158447e-01 5.400000214576721191e-01 1.914800071716308594e+01
1.863800048828125000e+01 0.000000000000000000e+00 0.000000000000000000e+00 1.190000027418136597e-01 1.848399925231933594e+01 0.000000000000000000e+00 3.000000119209289551e-01 -9.499999880790710449e-02 1.921299934387207031e+01
1.916099929809570312e+01 0.000000000000000000e+00 0.000000000000000000e+00 3.149999976158142090e-01 1.917700004577636719e+01 0.000000000000000000e+00 -1.260000020265579224e-01 5.389999747276306152e-01 1.910799980163574219e+01
1.924699974060058594e+01 0.000000000000000000e+00 0.000000000000000000e+00 0.000000000000000000e+00 1.924699974060058594e+01 0.000000000000000000e+00 0.000000000000000000e+00 0.000000000000000000e+00 1.924699974060058594e+01
1.882799911499023438e+01 0.000000000000000000e+00 0.000000000000000000e+00 0.000000000000000000e+00 1.882799911499023438e+01 0.000000000000000000e+00 0.000000000000000000e+00 0.000000000000000000e+00 1.882799911499023438e+01
1.890399932861328125e+01 0.000000000000000000e+00 0.000000000000000000e+00 3.599999845027923584e-02 1.894199943542480469e+01 0.000000000000000000e+00 4.800000041723251343e-02 2.329999953508377075e-01 1.881599998474121094e+01
1.909000015258789062e+01 0.000000000000000000e+00 0.000000000000000000e+00 1.220000013709068298e-01 1.893199920654296875e+01 0.000000000000000000e+00 3.070000112056732178e-01 -9.700000286102294922e-02 1.967799949645996094e+01
1.908300018310546875e+01 0.000000000000000000e+00 0.000000000000000000e+00 3.129999935626983643e-01 1.909900093078613281e+01 0.000000000000000000e+00 -1.260000020265579224e-01 5.360000133514404297e-01 1.903000068664550781e+01
1.889399909973144531e+01 0.000000000000000000e+00 0.000000000000000000e+00 3.100000023841857910e-01 1.891099929809570312e+01 0.000000000000000000e+00 -1.250000000000000000e-01 5.310000181198120117e-01 1.884199905395507812e+01
1.856999969482421875e+01 0.000000000000000000e+00 0.000000000000000000e+00 -4.970000088214874268e-01 1.907099914550781250e+01 0.000000000000000000e+00 2.000000094994902611e-03 -2.930000126361846924e-01 1.937999916076660156e+01
1.908499908447265625e+01 0.000000000000000000e+00 0.000000000000000000e+00 1.389999985694885254e-01 1.949300003051757812e+01 0.000000000000000000e+00 -5.109999775886535645e-01 5.199999809265136719e-01 1.884300041198730469e+01
1.935600090026855469e+01 0.000000000000000000e+00 0.000000000000000000e+00 3.179999887943267822e-01 1.937299919128417969e+01 0.000000000000000000e+00 -1.280000060796737671e-01 5.440000295639038086e-01 1.930200004577636719e+01
1.906699943542480469e+01 0.000000000000000000e+00 0.000000000000000000e+00 3.599999845027923584e-02 1.910499954223632812e+01 0.000000000000000000e+00 4.800000041723251343e-02 2.349999994039535522e-01 1.897699928283691406e+01
1.853100013732910156e+01 0.000000000000000000e+00 0.000000000000000000e+00 -4.950000047683715820e-01 1.903100013732910156e+01 0.000000000000000000e+00 2.000000094994902611e-03 -2.919999957084655762e-01 1.933799934387207031e+01
1.963800048828125000e+01 0.000000000000000000e+00 0.000000000000000000e+00 2.430000007152557373e-01 1.933900070190429688e+01 0.000000000000000000e+00 8.699999749660491943e-02 -4.880000054836273193e-01 1.888699913024902344e+01
1.868000030517578125e+01 0.000000000000000000e+00 0.000000000000000000e+00 1.360000073909759521e-01 1.907999992370605469e+01 0.000000000000000000e+00 -5.000000000000000000e-01 5.080000162124633789e-01 1.844300079345703125e+01
1.877899932861328125e+01 0.000000000000000000e+00 0.000000000000000000e+00 -5.019999742507934570e-01 1.928499984741210938e+01 0.000000000000000000e+00 2.000000094994902611e-03 -2.960000038146972656e-01 1.959700012207031250e+01
1.857200050354003906e+01 0.000000000000000000e+00 0.000000000000000000e+00 1.350000053644180298e-01 1.896999931335449219e+01 0.000000000000000000e+00 -4.979999959468841553e-01 5.059999823570251465e-01 1.833600044250488281e+01
1.940600013732910156e+01 0.000000000000000000e+00 0.000000000000000000e+00 3.190000057220458984e-01 1.942300033569335938e+01 0.000000000000000000e+00 -1.280000060796737671e-01 5.450000166893005371e-01 1.935199928283691406e+01
1.865399932861328125e+01 0.000000000000000000e+00 0.000000000000000000e+00 1.190000027418136597e-01 1.849900054931640625e+01 0.000000000000000000e+00 3.000000119209289551e-01 -9.499999880790710449e-02 1.922900009155273438e+01
1.929199981689453125e+01 0.000000000000000000e+00 0.000000000000000000e+00 2.389999926090240479e-01 1.899799919128417969e+01 0.000000000000000000e+00 8.500000089406967163e-02 -4.799999892711639404e-01 1.855400085449218750e+01
1.928000068664550781e+01 0.000000000000000000e+00 0.000000000000000000e+00 1.969999969005584717e-01 1.889299964904785156e+01 0.000000000000000000e+00 -4.110000133514404297e-01 -5.099999904632568359e-01 1.936300086975097656e+01
1.892200088500976562e+01 0.000000000000000000e+00 0.000000000000000000e+00 1.930000036954879761e-01 1.854199981689453125e+01 0.000000000000000000e+00 -4.029999971389770508e-01 -5.009999871253967285e-01 1.900300025939941406e+01
1.900499916076660156e+01 0.000000000000000000e+00 0.000000000000000000e+00 -4.930000007152557373e-01 1.973200035095214844e+01 0.000000000000000000e+00 -5.339999794960021973e-01 -2.759999930858612061e-01 1.901099967956542969e+01
1.895400047302246094e+01 0.000000000000000000e+00 0.000000000000000000e+00 1.209999993443489075e-01 1.879700088500976562e+01 0.000000000000000000e+00 3.050000071525573730e-01 -9.600000083446502686e-02 1.953800010681152344e+01
1.877400016784667969e+01 0.000000000000000000e+00 0.000000000000000000e+00 -5.019999742507934570e-01 1.928100013732910156e+01 0.000000000000000000e+00 2.000000094994902611e-03 -2.960000038146972656e-01 1.959199905395507812e+01
1.870800018310546875e+01 0.000000000000000000e+00 0.000000000000000000e+00 1.360000073909759521e-01 1.910799980163574219e+01 0.000000000000000000e+00 -5.009999871253967285e-01 5.090000033378601074e-01 1.846999931335449219e+01
1.933600044250488281e+01 0.000000000000000000e+00 0.000000000000000000e+00 2.399999946355819702e-01 1.904199981689453125e+01 0.000000000000000000e+00 8.500000089406967163e-02 -4.810000061988830566e-01 1.859600067138671875e+01
1.940999984741210938e+01 0.000000000000000000e+00 0.000000000000000000e+00 3.190000057220458984e-01 1.942700004577636719e+01 0.000000000000000000e+00 -1.280000060796737671e-01 5.460000038146972656e-01 1.935600090026855469e+01