-6.083599218750000000e+04
-6.081639843750000000e+04
-6.083454687500000000e+04
-6.081642578125000000e+04
-6.081759765625000000e+04
-6.082030859375000000e+04
-6.081485156250000000e+04
-6.082000390625000000e+04
-6.083022656250000000e+04
-6.083298046875000000e+04
-6.082352343750000000e+04
-6.081529687500000000e+04
-6.083138281250000000e+04
-6.083449218750000000e+04
-6.083180078125000000e+04
-6.082955468750000000e+04
-6.083526953125000000e+04
-6.082689453125000000e+04
-6.082024609375000000e+04
-6.082128515625000000e+04
-6.084552734375000000e+04
-6.084421484375000000e+04
-6.084561328125000000e+04
-6.081869921875000000e+04
-6.082162109375000000e+04
-6.081735937500000000e+04
-6.082001953125000000e+04
-6.081830468750000000e+04
-6.081276953125000000e+04
-6.082165625000000000e+04
-6.081725781250000000e+04
-6.081093750000000000e+04
-6.083939062500000000e+04
-6.082643750000000000e+04
-6.081625000000000000e+04
-6.083386718750000000e+04
-6.082189843750000000e+04
-6.082135546875000000e+04
-6.081650781250000000e+04
-6.083490234375000000e+04
-6.083196875000000000e+04
-6.083668750000000000e+04
-6.081775000000000000e+04
-6.084500781250000000e+04
-6.083873828125000000e+04
-6.081300390625000000e+04
-6.083698437500000000e+04
-6.083697656250000000e+04
-6.082138281250000000e+04
-6.084687890625000000e+04
-6.081684765625000000e+04
-6.083384765625000000e+04
-6.081578906250000000e+04
-6.081431640625000000e+04
-6.081184375000000000e+04
-6.081450000000000000e+04
-6.081563281250000000e+04
-6.081448828125000000e+04
-6.084455468750000000e+04
-6.081644140625000000e+04
-6.083698046875000000e+04
-6.083368750000000000e+04
-6.081853906250000000e+04
-6.081678515625000000e+04
-6.084714062500000000e+04
-6.082385546875000000e+04
-6.083180468750000000e+04
-6.084638671875000000e+04
-6.084438671875000000e+04
-6.083096875000000000e+04
-6.083311718750000000e+04
-6.082159375000000000e+04
-6.082032812500000000e+04
-6.081515234375000000e+04
-6.082062890625000000e+04
-6.081601953125000000e+04
-6.081490234375000000e+04
-6.082106640625000000e+04
-6.084757031250000000e+04
-6.081694531250000000e+04
-6.083292187500000000e+04
-6.084794921875000000e+04
-6.082214453125000000e+04
-6.082104687500000000e+04
-6.081374218750000000e+04
-6.081907031250000000e+04
-6.081993359375000000e+04
-6.081528125000000000e+04
-6.085042968750000000e+04
-6.082182421875000000e+04
-6.081726953125000000e+04
-6.083118359375000000e+04
-6.081841015625000000e+04
-6.086166015625000000e+04
-6.085035937500000000e+04
-6.084251562500000000e+04
-6.084792968750000000e+04
-6.083615234375000000e+04
-6.083624218750000000e+04
-6.083255468750000000e+04
-6.083737109375000000e+04
-6.084842187500000000e+04
-6.082063671875000000e+04
-6.082010937500000000e+04
-6.084413281250000000e+04
-6.082137109375000000e+04
-6.082106250000000000e+04
-6.085065234375000000e+04
-6.082786718750000000e+04
-6.081594140625000000e+04
-6.082389062500000000e+04
-6.084527343750000000e+04
-6.082110937500000000e+04
-6.081896093750000000e+04
-6.081855859375000000e+04
-6.083085156250000000e+04
-6.084900781250000000e+04
-6.082865625000000000e+04
-6.084755468750000000e+04
-6.081940234375000000e+04
-6.085319921875000000e+04
-6.081464062500000000e+04
-6.084850000000000000e+04
-6.083187500000000000e+04
-6.082007812500000000e+04
-6.083260937500000000e+04
-6.081730468750000000e+04
-6.081939453125000000e+04
-6.081794921875000000e+04
-6.085013281250000000e+04
-6.083209375000000000e+04
-6.081749218750000000e+04
-6.082189843750000000e+04
-6.082116796875000000e+04
-6.083394921875000000e+04
-6.083495703125000000e+04
-6.082026562500000000e+04
-6.082250781250000000e+04
-6.083716796875000000e+04
-6.081895312500000000e+04
-6.082148437500000000e+04
-6.082080468750000000e+04
-6.083172265625000000e+04
-6.081583593750000000e+04
-6.082176562500000000e+04
-6.083282031250000000e+04
-6.083101953125000000e+04
-6.084859375000000000e+04
-6.083237109375000000e+04
-6.083492578125000000e+04
-6.081748046875000000e+04
-6.081564062500000000e+04
-6.082097265625000000e+04
-6.081473046875000000e+04
-6.082031640625000000e+04
-6.083444140625000000e+04
-6.081835546875000000e+04
-6.082241406250000000e+04
-6.083245703125000000e+04
-6.081616406250000000e+04
-6.081915625000000000e+04
-6.083453906250000000e+04
-6.084739843750000000e+04
-6.083216406250000000e+04
-6.084796875000000000e+04
-6.081601953125000000e+04
-6.083558984375000000e+04
-6.081106640625000000e+04
-6.082017968750000000e+04
-6.081322265625000000e+04
-6.082135546875000000e+04
-6.081456250000000000e+04
-6.082435546875000000e+04
-6.081665234375000000e+04
-6.081931640625000000e+04
-6.084813281250000000e+04
-6.083424218750000000e+04
-6.083958984375000000e+04
-6.082024218750000000e+04
-6.082129296875000000e+04
-6.083688281250000000e+04
-6.081783593750000000e+04
-6.081439453125000000e+04
-6.082137500000000000e+04
-6.083068359375000000e+04
-6.083001171875000000e+04
-6.083468750000000000e+04
-6.081919531250000000e+04
-6.084801562500000000e+04
-6.081521093750000000e+04
-6.084742968750000000e+04
-6.081291015625000000e+04
-6.081115625000000000e+04
-6.081473828125000000e+04
-6.082249609375000000e+04
-6.082474609375000000e+04
-6.084739062500000000e+04
-6.083686718750000000e+04
-6.084710546875000000e+04
-6.081838671875000000e+04
-6.081661718750000000e+04
-6.082990625000000000e+04
-6.082086328125000000e+04
-6.083326171875000000e+04
-6.083020312500000000e+04
-6.081180468750000000e+04
-6.083135937500000000e+04
-6.082521093750000000e+04
-6.084386718750000000e+04
-6.083691796875000000e+04
-6.081558984375000000e+04
-6.082715625000000000e+04
-6.083847656250000000e+04
-6.081531250000000000e+04
-6.081767578125000000e+04
-6.084828515625000000e+04
-6.082014062500000000e+04
-6.081423046875000000e+04
-6.085092578125000000e+04
-6.081884375000000000e+04
-6.084742968750000000e+04
-6.082011328125000000e+04
-6.081319531250000000e+04
-6.084953515625000000e+04
-6.084576562500000000e+04
-6.081972265625000000e+04
-6.081783203125000000e+04
-6.081274218750000000e+04
-6.081701562500000000e+04
-6.082243750000000000e+04
-6.082878125000000000e+04
-6.085012500000000000e+04
-6.082271875000000000e+04
-6.081782031250000000e+04
-6.084546093750000000e+04
-6.081561718750000000e+04
-6.083490234375000000e+04
-6.083200781250000000e+04
-6.082178515625000000e+04
-6.081603125000000000e+04
-6.083328906250000000e+04
-6.081737890625000000e+04
-6.084832421875000000e+04
-6.083405078125000000e+04
-6.081922656250000000e+04
-6.081419921875000000e+04
-6.081778125000000000e+04
-6.083479296875000000e+04
-6.083434765625000000e+04
-6.081722656250000000e+04
-6.081796093750000000e+04
-6.084662500000000000e+04
-6.083386328125000000e+04
-6.082828125000000000e+04
-6.084493750000000000e+04
-6.081461718750000000e+04
-6.084704296875000000e+04
-6.084649609375000000e+04
-6.084182421875000000e+04
-6.083886328125000000e+04
-6.081806640625000000e+04
-6.081881640625000000e+04
-6.081873046875000000e+04
-6.084853515625000000e+04
-6.084845703125000000e+04
-6.081446484375000000e+04
-6.082036718750000000e+04
-6.084580078125000000e+04
-6.081279687500000000e+04
-6.082033593750000000e+04
-6.084920312500000000e+04
-6.081780468750000000e+04
-6.081868750000000000e+04
-6.081650781250000000e+04
-6.081749609375000000e+04
-6.084712109375000000e+04
-6.082906250000000000e+04
-6.081255859375000000e+04
-6.081210937500000000e+04
-6.081298046875000000e+04
-6.082493750000000000e+04
-6.081988281250000000e+04
-6.083135937500000000e+04
-6.084763281250000000e+04
-6.083567187500000000e+04
-6.081716796875000000e+04
-6.083567187500000000e+04
-6.084512890625000000e+04
-6.081990234375000000e+04
-6.081344531250000000e+04
-6.083114062500000000e+04
-6.081253125000000000e+04
-6.082232031250000000e+04
-6.083576171875000000e+04
-6.081705859375000000e+04
-6.082353515625000000e+04
-6.083081250000000000e+04
-6.082151171875000000e+04
-6.082157812500000000e+04
-6.082429296875000000e+04
-6.081969531250000000e+04
-6.081846484375000000e+04
-6.084028125000000000e+04
-6.081645703125000000e+04
-6.081664062500000000e+04
-6.082162890625000000e+04
-6.081802343750000000e+04
-6.082801562500000000e+04
-6.081530468750000000e+04
-6.081622265625000000e+04
-6.080837890625000000e+04
-6.083142968750000000e+04
-6.081499218750000000e+04
-6.081992968750000000e+04
-6.082322656250000000e+04
-6.082176562500000000e+04
-6.081560156250000000e+04
-6.082480468750000000e+04
-6.083278906250000000e+04
-6.083428125000000000e+04
-6.083480468750000000e+04
-6.083023828125000000e+04
-6.083552734375000000e+04
-6.082455859375000000e+04
-6.081762109375000000e+04
-6.081738281250000000e+04
-6.084664843750000000e+04
-6.082272265625000000e+04
-6.081331640625000000e+04
-6.084465625000000000e+04
-6.084726171875000000e+04
-6.082312500000000000e+04
-6.083518750000000000e+04
-6.084349609375000000e+04
-6.081677734375000000e+04
-6.082356640625000000e+04
-6.082453906250000000e+04
-6.084601953125000000e+04
-6.082407031250000000e+04
-6.084685546875000000e+04
-6.081154296875000000e+04
-6.081689062500000000e+04
-6.084825781250000000e+04
-6.082002343750000000e+04
-6.082012500000000000e+04
-6.084488671875000000e+04
-6.083267578125000000e+04
-6.081391406250000000e+04
-6.083348828125000000e+04
-6.081851171875000000e+04
-6.084428125000000000e+04
-6.083379687500000000e+04
-6.081557812500000000e+04
-6.085106640625000000e+04
-6.081323046875000000e+04
-6.081465234375000000e+04
-6.081399218750000000e+04
-6.085130078125000000e+04
-6.082235156250000000e+04
-6.081706250000000000e+04
-6.083333203125000000e+04
-6.084680859375000000e+04
-6.084414453125000000e+04
-6.082289453125000000e+04
-6.082139062500000000e+04
-6.082040234375000000e+04
-6.082410156250000000e+04
-6.083470703125000000e+04
-6.084897265625000000e+04
-6.084739843750000000e+04
-6.082223828125000000e+04
-6.081633593750000000e+04
-6.080998828125000000e+04
-6.084897265625000000e+04
-6.082307812500000000e+04
-6.083670312500000000e+04
-6.082033984375000000e+04
-6.081468750000000000e+04
-6.082054687500000000e+04
-6.083335546875000000e+04
-6.085032421875000000e+04
-6.084411718750000000e+04
-6.081762500000000000e+04
-6.083036328125000000e+04
-6.081813671875000000e+04
-6.084647265625000000e+04
-6.084452734375000000e+04
-6.084863281250000000e+04
-6.081964062500000000e+04
-6.081481640625000000e+04
-6.081371484375000000e+04
-6.083273046875000000e+04
-6.081571875000000000e+04
-6.084594531250000000e+04
-6.082054687500000000e+04
-6.083207031250000000e+04
-6.082707812500000000e+04
-6.081492187500000000e+04
-6.083088281250000000e+04
-6.082025781250000000e+04
-6.081711328125000000e+04
-6.081504687500000000e+04
-6.084514843750000000e+04
-6.081619140625000000e+04
-6.081453125000000000e+04
-6.081503515625000000e+04
-6.081562890625000000e+04
-6.081896093750000000e+04
-6.082920312500000000e+04
-6.083076953125000000e+04
-6.084787109375000000e+04
-6.083645312500000000e+04
-6.081456250000000000e+04
-6.082378125000000000e+04
-6.083509765625000000e+04
-6.083122265625000000e+04
-6.084591406250000000e+04
-6.083326171875000000e+04
-6.081745703125000000e+04
-6.082360156250000000e+04
-6.084387500000000000e+04
-6.081988281250000000e+04
-6.081839843750000000e+04
-6.083771484375000000e+04
-6.083548828125000000e+04
-6.081255078125000000e+04
-6.083428125000000000e+04
-6.081691796875000000e+04
-6.084795312500000000e+04
-6.081670703125000000e+04
-6.081362890625000000e+04
-6.082812890625000000e+04
-6.081406640625000000e+04
-6.083786328125000000e+04
-6.082314843750000000e+04
-6.081842968750000000e+04
-6.082300390625000000e+04
-6.081962890625000000e+04
-6.083369531250000000e+04
-6.081329687500000000e+04
-6.081866406250000000e+04
-6.084514843750000000e+04
-6.082501953125000000e+04
-6.081482812500000000e+04
-6.082540625000000000e+04
-6.081175781250000000e+04
-6.084728125000000000e+04
-6.082417968750000000e+04
-6.081739843750000000e+04
-6.084632421875000000e+04
-6.082119921875000000e+04
-6.083340625000000000e+04
-6.081784375000000000e+04
-6.081890234375000000e+04
-6.081899218750000000e+04
-6.084424218750000000e+04
-6.082024609375000000e+04
-6.081978515625000000e+04
-6.082035937500000000e+04
-6.082105078125000000e+04
-6.082089843750000000e+04
-6.083245312500000000e+04
-6.083448437500000000e+04
-6.084576171875000000e+04
-6.081969140625000000e+04
-6.081566015625000000e+04
-6.081929296875000000e+04
-6.082245703125000000e+04
-6.082152343750000000e+04
-6.083622265625000000e+04
-6.081562500000000000e+04
-6.082068359375000000e+04
-6.081664843750000000e+04
-6.083538671875000000e+04
-6.084748437500000000e+04
-6.083534375000000000e+04
-6.084838671875000000e+04
-6.082301562500000000e+04
-6.083021093750000000e+04
-6.081931640625000000e+04
-6.082098828125000000e+04
-6.083350390625000000e+04
-6.081931640625000000e+04
-6.082282421875000000e+04
-6.081879687500000000e+04
-6.084875390625000000e+04
-6.081625390625000000e+04
-6.083374609375000000e+04
-6.081898046875000000e+04
-6.084837890625000000e+04
-6.081959375000000000e+04
-6.081620312500000000e+04
-6.083240625000000000e+04
-6.084474218750000000e+04
-6.081935937500000000e+04
-6.081787109375000000e+04
-6.083199218750000000e+04
-6.084825390625000000e+04
-6.083142187500000000e+04
-6.081572265625000000e+04
-6.082015625000000000e+04
-6.084578906250000000e+04
-6.081303906250000000e+04
-6.081947265625000000e+04
-6.081375781250000000e+04
-6.083167968750000000e+04
-6.081710156250000000e+04
-6.081464843750000000e+04
-6.082236328125000000e+04
-6.082887890625000000e+04
-6.084539453125000000e+04
-6.084179296875000000e+04
-6.084710937500000000e+04
-6.082112890625000000e+04
-6.083064843750000000e+04
-6.081591796875000000e+04
-6.081641406250000000e+04
-6.083197265625000000e+04
-6.081630078125000000e+04
-6.081401171875000000e+04
-6.083737500000000000e+04
-6.082010937500000000e+04
-6.083178906250000000e+04
-6.083050390625000000e+04
-6.083410156250000000e+04
-6.084632812500000000e+04
-6.083195703125000000e+04
-6.082412500000000000e+04
-6.083449609375000000e+04
-6.081459375000000000e+04
-6.083521875000000000e+04
-6.082026953125000000e+04
-6.082133984375000000e+04
-6.083178515625000000e+04
-6.081227343750000000e+04
-6.081965234375000000e+04
-6.081375000000000000e+04
-6.084931250000000000e+04
-6.086126562500000000e+04
-6.084499609375000000e+04
-6.083273437500000000e+04
-6.081917968750000000e+04
-6.081772656250000000e+04
-6.081784765625000000e+04
-6.084069531250000000e+04
-6.083508984375000000e+04
-6.081304296875000000e+04
-6.083265625000000000e+04
-6.083378125000000000e+04
-6.084851171875000000e+04
-6.084437890625000000e+04
-6.082030468750000000e+04
-6.084703515625000000e+04
-6.081670703125000000e+04
-6.083520703125000000e+04
-6.081874218750000000e+04
-6.081699609375000000e+04
-6.081610156250000000e+04
-6.084414062500000000e+04
-6.081634765625000000e+04
-6.081832031250000000e+04
-6.081819140625000000e+04
-6.084801171875000000e+04
-6.084709375000000000e+04
-6.082601562500000000e+04
-6.083133593750000000e+04
-6.081599218750000000e+04
-6.083363281250000000e+04
-6.081967578125000000e+04
-6.081696875000000000e+04
-6.081698046875000000e+04
-6.081399609375000000e+04
-6.086745312500000000e+04
-6.081771875000000000e+04
-6.081800781250000000e+04
-6.082041015625000000e+04
-6.084526171875000000e+04
-6.084536718750000000e+04
-6.081825000000000000e+04
-6.082617968750000000e+04
-6.081593750000000000e+04
-6.083275390625000000e+04
-6.083770312500000000e+04
-6.082121875000000000e+04
-6.083505468750000000e+04
-6.081571484375000000e+04
-6.084053515625000000e+04
-6.083622265625000000e+04
-6.082919140625000000e+04
-6.083143359375000000e+04
-6.083619531250000000e+04
-6.082116015625000000e+04
-6.081546875000000000e+04
-6.081509375000000000e+04
-6.083284375000000000e+04
-6.081507421875000000e+04
-6.081496484375000000e+04
-6.081490625000000000e+04
-6.084884375000000000e+04
-6.081833203125000000e+04
-6.081655078125000000e+04
-6.083032031250000000e+04
-6.081498437500000000e+04
-6.081957031250000000e+04
-6.081816015625000000e+04
-6.082779687500000000e+04
-6.081494531250000000e+04
-6.081617968750000000e+04
-6.081776171875000000e+04
-6.084721875000000000e+04
-6.083043359375000000e+04
-6.086048437500000000e+04
-6.085064843750000000e+04
-6.083851953125000000e+04
-6.083448046875000000e+04
-6.083280468750000000e+04
-6.083165234375000000e+04
-6.081810937500000000e+04
-6.081557031250000000e+04
-6.083155078125000000e+04
-6.083561718750000000e+04
-6.082079687500000000e+04
-6.081830859375000000e+04
-6.081288671875000000e+04
-6.081729687500000000e+04
-6.083547656250000000e+04
-6.082066796875000000e+04
-6.084616015625000000e+04
-6.083137500000000000e+04
-6.082996093750000000e+04
-6.084481640625000000e+04
-6.081533203125000000e+04
-6.081834765625000000e+04
-6.081685937500000000e+04
-6.082132421875000000e+04
-6.083398046875000000e+04
-6.084719140625000000e+04
-6.081620312500000000e+04
-6.081310156250000000e+04
-6.083242968750000000e+04
-6.082042578125000000e+04
-6.084721875000000000e+04
-6.083388281250000000e+04
-6.081954687500000000e+04
-6.082537890625000000e+04
-6.082006640625000000e+04
-6.083735937500000000e+04
-6.084950781250000000e+04
-6.084864843750000000e+04
-6.081570312500000000e+04
-6.086497656250000000e+04
-6.081849609375000000e+04
-6.081789843750000000e+04
-6.081464843750000000e+04
-6.083751171875000000e+04
-6.081960546875000000e+04
-6.083260546875000000e+04
-6.081787890625000000e+04
-6.081178906250000000e+04
-6.081707031250000000e+04
-6.081069921875000000e+04
-6.081916406250000000e+04
-6.082053906250000000e+04
-6.081519921875000000e+04
-6.081537500000000000e+04
-6.081948437500000000e+04
-6.083142578125000000e+04
-6.081825390625000000e+04
-6.081880859375000000e+04
-6.084941406250000000e+04
-6.084798828125000000e+04
-6.083435156250000000e+04
-6.081812109375000000e+04
-6.084014062500000000e+04
-6.082041796875000000e+04
-6.082107031250000000e+04
-6.081650390625000000e+04
-6.082302343750000000e+04
-6.081564843750000000e+04
-6.084510937500000000e+04
-6.082932031250000000e+04
-6.081622265625000000e+04
-6.081574609375000000e+04
-6.080869921875000000e+04
-6.083410937500000000e+04
-6.081769140625000000e+04
-6.083278125000000000e+04
-6.081540625000000000e+04
-6.080709765625000000e+04
-6.082040234375000000e+04
-6.082757031250000000e+04
-6.083453125000000000e+04
-6.081311718750000000e+04
-6.081828515625000000e+04
-6.083312109375000000e+04
-6.082825000000000000e+04
-6.084700390625000000e+04
-6.082105078125000000e+04
-6.084935156250000000e+04
-6.084452343750000000e+04
-6.085085156250000000e+04
-6.082582812500000000e+04
-6.083387109375000000e+04
-6.081923046875000000e+04
-6.083134765625000000e+04
-6.083347265625000000e+04
-6.082155859375000000e+04
-6.082604687500000000e+04
-6.084825000000000000e+04
-6.083480468750000000e+04
-6.083475781250000000e+04
-6.081808203125000000e+04
-6.081428125000000000e+04
-6.081904296875000000e+04
-6.085179296875000000e+04
-6.081973046875000000e+04
-6.082183984375000000e+04
-6.081726953125000000e+04
-6.081614843750000000e+04
-6.083523437500000000e+04
-6.082081250000000000e+04
-6.082091796875000000e+04
-6.081410156250000000e+04
-6.082035156250000000e+04
-6.083041796875000000e+04
-6.081879687500000000e+04
-6.081735546875000000e+04
-6.081633203125000000e+04
-6.084960546875000000e+04
-6.083375000000000000e+04
-6.081395312500000000e+04
-6.084643750000000000e+04
-6.081695312500000000e+04
-6.081138671875000000e+04
-6.083780859375000000e+04
-6.082024218750000000e+04
-6.084766796875000000e+04
-6.081825000000000000e+04
-6.081235937500000000e+04
-6.083485156250000000e+04
-6.083360937500000000e+04
-6.081440625000000000e+04
-6.083387500000000000e+04
-6.081966406250000000e+04
-6.084560546875000000e+04
-6.084601562500000000e+04
-6.081855078125000000e+04
-6.081491015625000000e+04
-6.082072656250000000e+04
-6.083790234375000000e+04
-6.084863281250000000e+04
-6.081733593750000000e+04
-6.081793359375000000e+04
-6.084416796875000000e+04
-6.084615234375000000e+04
-6.082685937500000000e+04
-6.081914453125000000e+04
-6.084753515625000000e+04
-6.081409375000000000e+04
-6.083344140625000000e+04
-6.083031250000000000e+04
-6.080925781250000000e+04
-6.083403515625000000e+04
-6.081393750000000000e+04
-6.081913671875000000e+04
-6.081846093750000000e+04
-6.082943359375000000e+04
-6.085887500000000000e+04
-6.081617968750000000e+04
-6.084663281250000000e+04
-6.082073828125000000e+04
-6.081857421875000000e+04
-6.081835937500000000e+04
-6.082621875000000000e+04
-6.081960546875000000e+04
-6.084576562500000000e+04
-6.083992578125000000e+04
-6.084837890625000000e+04
-6.082253906250000000e+04
-6.083425390625000000e+04
-6.082067578125000000e+04
-6.081351171875000000e+04
-6.083027734375000000e+04
-6.082042187500000000e+04
-6.083196875000000000e+04
-6.082024218750000000e+04
-6.082039453125000000e+04
-6.082810546875000000e+04
-6.082480468750000000e+04
-6.081554296875000000e+04
-6.083228515625000000e+04
-6.081777343750000000e+04
-6.084795703125000000e+04
-6.081621093750000000e+04
-6.081227343750000000e+04
-6.083197656250000000e+04
-6.083288671875000000e+04
-6.082007421875000000e+04
-6.083444140625000000e+04
-6.084718359375000000e+04
-6.083833593750000000e+04
-6.081376953125000000e+04
-6.082326171875000000e+04
-6.083743359375000000e+04
-6.081875000000000000e+04
-6.081694921875000000e+04
-6.081913281250000000e+04
-6.085034765625000000e+04
-6.083936328125000000e+04
-6.081863281250000000e+04
-6.081460937500000000e+04
-6.081941015625000000e+04
-6.081811718750000000e+04
-6.084849218750000000e+04
-6.083053125000000000e+04
-6.081436718750000000e+04
-6.081733984375000000e+04
-6.083239062500000000e+04
-6.081577343750000000e+04
-6.082985156250000000e+04
-6.082158593750000000e+04
-6.082043750000000000e+04
-6.081826562500000000e+04
-6.083346484375000000e+04
-6.081182812500000000e+04
-6.084921875000000000e+04
-6.083202734375000000e+04
-6.085438671875000000e+04
-6.083273437500000000e+04
-6.082057421875000000e+04
-6.081741015625000000e+04
-6.082332812500000000e+04
-6.081964062500000000e+04
-6.081694921875000000e+04
-6.082200781250000000e+04
-6.083112500000000000e+04
-6.081718750000000000e+04
-6.081765234375000000e+04
-6.083635156250000000e+04
-6.081517578125000000e+04
-6.086408593750000000e+04
-6.084714843750000000e+04
-6.082026562500000000e+04
-6.082425390625000000e+04
-6.084798828125000000e+04
-6.082513671875000000e+04
-6.082146875000000000e+04
-6.082191796875000000e+04
-6.084562500000000000e+04
-6.082129687500000000e+04
-6.081560937500000000e+04
-6.082239843750000000e+04
-6.083413281250000000e+04
-6.081572656250000000e+04
-6.083539843750000000e+04
-6.085156640625000000e+04
-6.081225000000000000e+04
-6.081842578125000000e+04
-6.082327343750000000e+04
-6.083390625000000000e+04
-6.084552343750000000e+04
-6.081431640625000000e+04
-6.083221093750000000e+04
-6.083404296875000000e+04
-6.081345312500000000e+04
-6.082010156250000000e+04
-6.081658593750000000e+04
-6.083132812500000000e+04
-6.082912500000000000e+04
-6.082073828125000000e+04
-6.084718359375000000e+04
-6.083402343750000000e+04
-6.081528906250000000e+04
-6.084677734375000000e+04
-6.084956250000000000e+04
-6.081774218750000000e+04
-6.083318359375000000e+04
-6.083813671875000000e+04
-6.083385156250000000e+04
-6.082476171875000000e+04
-6.081360546875000000e+04
-6.082019531250000000e+04
-6.081479296875000000e+04
-6.084744140625000000e+04
-6.083733203125000000e+04
-6.082060546875000000e+04
-6.081308984375000000e+04
-6.084380468750000000e+04
-6.082083984375000000e+04
-6.083214062500000000e+04
-6.083430468750000000e+04
-6.081985546875000000e+04
-6.082392187500000000e+04
-6.082011718750000000e+04
-6.084975000000000000e+04
-6.082153906250000000e+04
-6.083245703125000000e+04
-6.083221875000000000e+04
-6.082620312500000000e+04
-6.083137109375000000e+04
-6.081708203125000000e+04
-6.082336718750000000e+04
-6.082836718750000000e+04
-6.082091796875000000e+04
-6.082155078125000000e+04
-6.083559765625000000e+04
-6.084411328125000000e+04
-6.083428906250000000e+04
-6.081974218750000000e+04
