-3.828410339355468750e+01 6.342661380767822266e-01 -1.583794951438903809e+00 6.342661380767822266e-01 -1.905258750915527344e+01 -5.620840549468994141e+00 -1.583794951438903809e+00 -5.620840549468994141e+00 -4.333562088012695312e+01
-2.747129249572753906e+01 -3.543834924697875977e+00 -9.363370895385742188e+00 -3.543834924697875977e+00 -4.828271102905273438e+01 1.188599205017089844e+01 -9.363370895385742188e+00 1.188599205017089844e+01 -4.430976867675781250e+01
1.351896476745605469e+01 -1.085101604461669922e+01 -1.188100528717041016e+01 -1.085101604461669922e+01 -4.278989410400390625e+01 1.279490280151367188e+01 -1.188100528717041016e+01 1.279490280151367188e+01 -9.549696922302246094e+00
-1.849809169769287109e+00 -1.718523859977722168e+00 1.322168159484863281e+01 -1.718523859977722168e+00 -7.440853118896484375e+00 -3.927875518798828125e+00 1.322168159484863281e+01 -3.927875518798828125e+00 -1.170520782470703125e+01
-4.007507705688476562e+01 4.146872520446777344e+00 6.697947502136230469e+00 4.146872520446777344e+00 -4.036399841308593750e+01 -1.579498386383056641e+01 6.697947502136230469e+00 -1.579498386383056641e+01 -5.007931518554687500e+01
-3.524903106689453125e+01 -4.540248870849609375e+00 7.558759212493896484e+00 -4.540248870849609375e+00 -3.964505767822265625e+01 5.539407730102539062e+00 7.558759212493896484e+00 5.539407730102539062e+00 -3.552302551269531250e+01
-4.777244186401367188e+01 -1.628716468811035156e+01 -7.530609965324401855e-01 -1.628716468811035156e+01 -2.972468566894531250e+01 -6.675476074218750000e+00 -7.530609965324401855e-01 -6.675476074218750000e+00 -4.715004444122314453e+00
-1.584837055206298828e+01 -2.003931999206542969e+01 9.720586776733398438e+00 -2.003931999206542969e+01 -3.771150970458984375e+01 3.096872329711914062e+00 9.720586776733398438e+00 3.096872329711914062e+00 -5.400214385986328125e+01
-2.478800964355468750e+01 -4.189531803131103516e+00 -5.122953891754150391e+00 -4.189531803131103516e+00 -3.460843658447265625e+01 8.751202583312988281e+00 -5.122953891754150391e+00 8.751202583312988281e+00 -3.997940444946289062e+01
-2.964798736572265625e+01 1.246284103393554688e+01 3.736612796783447266e+00 1.246284103393554688e+01 -2.149159622192382812e+01 -8.060571670532226562e+00 3.736612796783447266e+00 -8.060571670532226562e+00 -1.541399478912353516e+01
-5.170565414428710938e+01 5.066214084625244141e+00 -1.043602371215820312e+01 5.066214084625244141e+00 -1.429689216613769531e+01 6.393623828887939453e+00 -1.043602371215820312e+01 6.393623828887939453e+00 -3.298971557617187500e+01
-6.933002471923828125e-01 -6.728427410125732422e-01 4.157916069030761719e+00 -6.728427410125732422e-01 -3.628804016113281250e+01 6.005208492279052734e-01 4.157916069030761719e+00 6.005208492279052734e-01 -3.339118957519531250e+01
-4.569421386718750000e+01 1.247499942779541016e+01 -7.652678966522216797e+00 1.247499942779541016e+01 -3.433158874511718750e+01 -3.488988161087036133e+00 -7.652678966522216797e+00 -3.488988161087036133e+00 -4.391341781616210938e+01
-1.972671127319335938e+01 5.394338607788085938e+00 -1.066486358642578125e+00 5.394338607788085938e+00 1.774282008409500122e-01 5.116831302642822266e+00 -1.066486358642578125e+00 5.116831302642822266e+00 -1.491364955902099609e+01
-6.287821197509765625e+01 -1.774372673034667969e+01 -5.249241828918457031e+00 -1.774372673034667969e+01 -5.684862518310546875e+01 3.428914070129394531e+00 -5.249241828918457031e+00 3.428914070129394531e+00 -4.616228103637695312e+01
-2.823538208007812500e+01 8.143693923950195312e+00 8.573248982429504395e-01 8.143693923950195312e+00 -4.664354705810546875e+01 -1.729365921020507812e+01 8.573248982429504395e-01 -1.729365921020507812e+01 -4.348147964477539062e+01
-2.124087142944335938e+01 1.379559040069580078e+01 -5.260625481605529785e-01 1.379559040069580078e+01 -3.372669601440429688e+01 2.460390806198120117e+00 -5.260625481605529785e-01 2.460390806198120117e+00 -2.319541358947753906e+01
-4.649355697631835938e+01 2.027860832214355469e+01 -3.824750185012817383e+00 2.027860832214355469e+01 -2.059506034851074219e+01 1.361719894409179688e+01 -3.824750185012817383e+00 1.361719894409179688e+01 -3.656986618041992188e+01
-3.005355072021484375e+01 1.274858093261718750e+01 1.725284457206726074e+00 1.274858093261718750e+01 -2.593152236938476562e+01 3.554530858993530273e+00 1.725284457206726074e+00 3.554530858993530273e+00 -2.622077369689941406e+01
-4.977314376831054688e+01 -5.700957298278808594e+00 -5.718382835388183594e+00 -5.700957298278808594e+00 -2.842368316650390625e+01 2.272785902023315430e+00 -5.718382835388183594e+00 2.272785902023315430e+00 -5.470869064331054688e+01
-4.693160247802734375e+01 1.197013568878173828e+01 -3.264028310775756836e+00 1.197013568878173828e+01 -3.844079589843750000e+01 -1.414871573448181152e+00 -3.264028310775756836e+00 -1.414871573448181152e+00 -4.543051147460937500e+01
-3.965337753295898438e+01 8.970099449157714844e+00 4.834237575531005859e+00 8.970099449157714844e+00 -4.735566711425781250e+01 4.083184719085693359e+00 4.834237575531005859e+00 4.083184719085693359e+00 -3.975122451782226562e+01
-4.062873840332031250e+01 1.309025287628173828e+01 6.246656894683837891e+00 1.309025287628173828e+01 -4.551872634887695312e+01 7.912508487701416016e+00 6.246656894683837891e+00 7.912508487701416016e+00 -3.812438583374023438e+01
-2.476873779296875000e+01 1.673654317855834961e+00 1.137611746788024902e+00 1.673654317855834961e+00 -2.244688987731933594e+00 6.015986919403076172e+00 1.137611746788024902e+00 6.015986919403076172e+00 -2.990480613708496094e+01
2.706660747528076172e+00 -8.953560829162597656e+00 -1.250123214721679688e+01 -8.953560829162597656e+00 -6.160122299194335938e+01 4.025684595108032227e-01 -1.250123214721679688e+01 4.025684595108032227e-01 -2.359405136108398438e+01
-4.836024093627929688e+01 -6.729279994964599609e+00 -2.902738380432128906e+01 -6.729279994964599609e+00 -2.657965087890625000e+01 -1.784045600891113281e+01 -2.902738380432128906e+01 -1.784045600891113281e+01 -2.701268386840820312e+01
-4.276511383056640625e+01 1.329166698455810547e+01 -3.142288208007812500e+00 1.329166698455810547e+01 -9.055134582519531250e+01 4.770550727844238281e+00 -3.142288208007812500e+00 4.770550727844238281e+00 -1.815666770935058594e+01
-1.646180725097656250e+01 -1.566127490997314453e+01 3.728639602661132812e+00 -1.566127490997314453e+01 -3.985111618041992188e+01 1.128218173980712891e-01 3.728639602661132812e+00 1.128218173980712891e-01 -1.981113243103027344e+01
-3.254623794555664062e+01 9.143120765686035156e+00 1.049604701995849609e+01 9.143120765686035156e+00 -2.567106056213378906e+01 -1.585812282562255859e+01 1.049604701995849609e+01 -1.585812282562255859e+01 -2.804333686828613281e+01
-6.467159271240234375e+01 1.060752296447753906e+01 -7.745733261108398438e+00 1.060752296447753906e+01 -3.646569824218750000e+01 1.412253093719482422e+01 -7.745733261108398438e+00 1.412253093719482422e+01 -5.336768722534179688e+01
-3.948661804199218750e+01 -7.567645072937011719e+00 -4.551683425903320312e+00 -7.567645072937011719e+00 -1.457333946228027344e+01 1.648356467485427856e-01 -4.551683425903320312e+00 1.648356467485427856e-01 -2.493358421325683594e+01
-2.948939514160156250e+01 -3.040317726135253906e+01 -1.118993568420410156e+01 -3.040317726135253906e+01 -1.948735237121582031e+01 2.061100959777832031e+01 -1.118993568420410156e+01 2.061100959777832031e+01 -5.368032836914062500e+01
-2.951841163635253906e+01 4.795127391815185547e+00 3.708293199539184570e+00 4.795127391815185547e+00 -5.234315872192382812e+01 2.285932540893554688e+00 3.708293199539184570e+00 2.285932540893554688e+00 -7.457688903808593750e+01
-3.028700447082519531e+01 4.241948604583740234e+00 2.545454502105712891e-01 4.241948604583740234e+00 -2.471350669860839844e+01 7.895775318145751953e+00 2.545454502105712891e-01 7.895775318145751953e+00 -4.826653480529785156e+00
-2.124491310119628906e+01 -2.309314918518066406e+01 1.473758506774902344e+01 -2.309314918518066406e+01 -4.938579177856445312e+01 -9.082099914550781250e+00 1.473758506774902344e+01 -9.082099914550781250e+00 -2.931121063232421875e+01
-4.663084030151367188e+01 -4.857118606567382812e+00 3.818241119384765625e+00 -4.857118606567382812e+00 -5.564825820922851562e+01 -7.456700801849365234e+00 3.818241119384765625e+00 -7.456700801849365234e+00 -3.017481231689453125e+01
-4.434991836547851562e+01 -1.595143508911132812e+01 -8.480973839759826660e-01 -1.595143508911132812e+01 -1.979809761047363281e+01 9.773889541625976562e+00 -8.480973839759826660e-01 9.773889541625976562e+00 -2.685727119445800781e+01
-5.239516830444335938e+01 -9.659860610961914062e+00 -1.278859138488769531e+00 -9.659860610961914062e+00 -4.043724441528320312e+01 -9.284657478332519531e+00 -1.278859138488769531e+00 -9.284657478332519531e+00 -2.644462776184082031e+01
-9.695734977722167969e+00 -2.696426630020141602e+00 -1.392715930938720703e+00 -2.696426630020141602e+00 6.068734645843505859e+00 1.551885986328125000e+01 -1.392715930938720703e+00 1.551885986328125000e+01 -3.092314147949218750e+01
-2.309345436096191406e+01 -1.448943138122558594e+01 6.281658172607421875e+00 -1.448943138122558594e+01 2.784656047821044922e+00 4.146656513214111328e+00 6.281658172607421875e+00 4.146656513214111328e+00 -1.782768821716308594e+01
-7.582141113281250000e+01 -4.019008159637451172e+00 -1.600746726989746094e+01 -4.019008159637451172e+00 -3.442198181152343750e+01 -1.202565357089042664e-01 -1.600746726989746094e+01 -1.202565357089042664e-01 -4.264879226684570312e+01
-2.416932106018066406e+01 1.845816969871520996e+00 5.126470088958740234e+00 1.845816969871520996e+00 -1.187091255187988281e+01 2.813811540603637695e+00 5.126470088958740234e+00 2.813811540603637695e+00 -6.585136890411376953e+00
-2.386211967468261719e+01 1.274151897430419922e+01 -1.657885360717773438e+01 1.274151897430419922e+01 -5.235468673706054688e+01 1.604950714111328125e+01 -1.657885360717773438e+01 1.604950714111328125e+01 -4.291896438598632812e+01
-3.438415145874023438e+01 -3.536025524139404297e+00 4.772888183593750000e+00 -3.536025524139404297e+00 -2.561334609985351562e+01 4.461773395538330078e+00 4.772888183593750000e+00 4.461773395538330078e+00 -2.860179185867309570e+00
-4.901909637451171875e+01 5.624980926513671875e-01 -1.825751423835754395e+00 5.624980926513671875e-01 -4.092610549926757812e+01 1.089022636413574219e+01 -1.825751423835754395e+00 1.089022636413574219e+01 -1.796413612365722656e+01
-2.972617340087890625e+01 -3.375406503677368164e+00 -7.670176982879638672e+00 -3.375406503677368164e+00 -2.028777885437011719e+01 -1.480633449554443359e+01 -7.670176982879638672e+00 -1.480633449554443359e+01 -3.960124206542968750e+01
-6.341326904296875000e+01 4.720950603485107422e+00 1.005769443511962891e+01 4.720950603485107422e+00 -5.767092132568359375e+01 -8.333496093750000000e+00 1.005769443511962891e+01 -8.333496093750000000e+00 -4.944232177734375000e+01
-5.996971511840820312e+01 -1.889867544174194336e+00 -5.103374481201171875e+00 -1.889867544174194336e+00 -3.748799133300781250e+01 9.718932151794433594e+00 -5.103374481201171875e+00 9.718932151794433594e+00 -3.613330841064453125e+01
-2.929576492309570312e+01 -1.748027324676513672e+00 6.318516254425048828e+00 -1.748027324676513672e+00 -2.504085922241210938e+01 -1.014165973663330078e+01 6.318516254425048828e+00 -1.014165973663330078e+01 -2.748015785217285156e+01
-2.935345458984375000e+01 -1.433382332324981689e-01 -1.166414546966552734e+01 -1.433382332324981689e-01 -3.870145416259765625e+01 1.032625675201416016e+00 -1.166414546966552734e+01 1.032625675201416016e+00 -1.051975822448730469e+01
-3.232386779785156250e+01 2.300173521041870117e+00 1.224065208435058594e+01 2.300173521041870117e+00 -2.085335922241210938e+01 1.510544681549072266e+01 1.224065208435058594e+01 1.510544681549072266e+01 -3.506281280517578125e+01
-1.801797676086425781e+01 -3.787463903427124023e-01 -9.880565643310546875e+00 -3.787463903427124023e-01 -2.858135414123535156e+01 -8.696278572082519531e+00 -9.880565643310546875e+00 -8.696278572082519531e+00 -5.260717868804931641e+00
6.265648365020751953e+00 -5.594063401222229004e-01 -1.724912834167480469e+01 -5.594063401222229004e-01 -1.852117347717285156e+01 -1.214753437042236328e+01 -1.724912834167480469e+01 -1.214753437042236328e+01 -4.471349334716796875e+01
-3.837482833862304688e+01 1.381631755828857422e+01 -1.492825126647949219e+01 1.381631755828857422e+01 -4.241443252563476562e+01 5.088077068328857422e+00 -1.492825126647949219e+01 5.088077068328857422e+00 -5.742172241210937500e+01
-2.818923711776733398e+00 -5.944330215454101562e+00 -8.152100563049316406e+00 -5.944330215454101562e+00 -2.037090301513671875e+01 1.943838310241699219e+01 -8.152100563049316406e+00 1.943838310241699219e+01 -1.556753158569335938e+01
-8.727292060852050781e+00 -6.655352592468261719e+00 -1.683422803878784180e+00 -6.655352592468261719e+00 -5.408614349365234375e+01 3.368942022323608398e+00 -1.683422803878784180e+00 3.368942022323608398e+00 -3.078822135925292969e+01
-3.627445220947265625e+01 4.931973934173583984e+00 4.958614349365234375e+00 4.931973934173583984e+00 -4.300312423706054688e+01 -8.755682945251464844e+00 4.958614349365234375e+00 -8.755682945251464844e+00 -5.268491744995117188e+01
-2.805210304260253906e+01 4.793431282043457031e+00 -6.617716789245605469e+00 4.793431282043457031e+00 -1.912584304809570312e+01 1.069599914550781250e+01 -6.617716789245605469e+00 1.069599914550781250e+01 -1.194231319427490234e+01
-2.768671417236328125e+01 -4.852447509765625000e-01 9.428731799125671387e-01 -4.852447509765625000e-01 -2.993358230590820312e+01 1.979423642158508301e+00 9.428731799125671387e-01 1.979423642158508301e+00 -3.580161285400390625e+01
-4.471717071533203125e+01 -2.708115339279174805e+00 -1.023466014862060547e+01 -2.708115339279174805e+00 -2.472270965576171875e+01 2.598465919494628906e+00 -1.023466014862060547e+01 2.598465919494628906e+00 -2.793713378906250000e+01
-2.284949302673339844e+01 -8.107008934020996094e+00 -1.015045928955078125e+01 -8.107008934020996094e+00 -3.221234512329101562e+01 -7.840453147888183594e+00 -1.015045928955078125e+01 -7.840453147888183594e+00 -1.859793853759765625e+01
-2.155915069580078125e+01 3.539109230041503906e+00 -3.215394258499145508e+00 3.539109230041503906e+00 -1.480066585540771484e+01 -9.529671669006347656e+00 -3.215394258499145508e+00 -9.529671669006347656e+00 -2.910682678222656250e+01
-6.853515625000000000e+01 1.334985047578811646e-01 1.167643928527832031e+01 1.334985047578811646e-01 -5.176479721069335938e+01 1.080363368988037109e+01 1.167643928527832031e+01 1.080363368988037109e+01 -3.785707473754882812e+01
-6.742241668701171875e+01 6.850302219390869141e+00 -4.249689102172851562e+00 6.850302219390869141e+00 -5.575269317626953125e+01 1.880554771423339844e+01 -4.249689102172851562e+00 1.880554771423339844e+01 -4.361614227294921875e+01
-4.525884628295898438e+01 3.238259315490722656e+00 -1.317245197296142578e+01 3.238259315490722656e+00 -4.642771148681640625e+01 6.009411334991455078e+00 -1.317245197296142578e+01 6.009411334991455078e+00 -3.083970069885253906e+01
-1.933625221252441406e+01 4.278777122497558594e+00 -1.407425975799560547e+01 4.278777122497558594e+00 -2.528265190124511719e+01 9.900078773498535156e+00 -1.407425975799560547e+01 9.900078773498535156e+00 -2.042165565490722656e+01
-4.566463851928710938e+01 8.831378936767578125e+00 -1.593605756759643555e+00 8.831378936767578125e+00 -3.715348434448242188e+01 -1.034727573394775391e+01 -1.593605756759643555e+00 -1.034727573394775391e+01 -2.241205787658691406e+01
-1.542022705078125000e+01 7.581768035888671875e+00 1.047836399078369141e+01 7.581768035888671875e+00 -4.134604644775390625e+01 -1.217288851737976074e+00 1.047836399078369141e+01 -1.217288851737976074e+00 -3.184762763977050781e+01
-1.567177867889404297e+01 -3.486539125442504883e+00 3.326912879943847656e+00 -3.486539125442504883e+00 -9.570178031921386719e+00 -4.031411647796630859e+00 3.326912879943847656e+00 -4.031411647796630859e+00 -1.104778289794921875e+01
-2.393648147583007812e+01 6.178541660308837891e+00 -3.538080155849456787e-01 6.178541660308837891e+00 -2.852496337890625000e+01 6.927062511444091797e+00 -3.538080155849456787e-01 6.927062511444091797e+00 -6.387865066528320312e+01
-1.523765659332275391e+01 -1.205444431304931641e+01 3.507635831832885742e+00 -1.205444431304931641e+01 -5.417944717407226562e+01 1.322427988052368164e-01 3.507635831832885742e+00 1.322427988052368164e-01 -1.871686363220214844e+01
2.488043594360351562e+01 1.054138374328613281e+01 -2.266475200653076172e+00 1.054138374328613281e+01 -1.858698272705078125e+01 -3.641781330108642578e+00 -2.266475200653076172e+00 -3.641781330108642578e+00 -3.946212768554687500e+01
-1.304702854156494141e+01 -3.862898349761962891e-01 5.787170410156250000e+00 -3.862898349761962891e-01 -1.664402198791503906e+01 4.538801193237304688e+00 5.787170410156250000e+00 4.538801193237304688e+00 -5.812671661376953125e+01
-3.302056121826171875e+01 1.599923324584960938e+01 -1.078402042388916016e+01 1.599923324584960938e+01 -3.659093856811523438e+01 1.672163200378417969e+01 -1.078402042388916016e+01 1.672163200378417969e+01 -8.204338836669921875e+01
-5.028607177734375000e+01 1.809181976318359375e+01 1.043859195709228516e+01 1.809181976318359375e+01 -7.135031890869140625e+01 1.560419750213623047e+01 1.043859195709228516e+01 1.560419750213623047e+01 -8.272044372558593750e+01
-8.229629516601562500e+00 -3.057883501052856445e+00 -1.725644469261169434e+00 -3.057883501052856445e+00 -2.761192321777343750e+01 -2.615694046020507812e+00 -1.725644469261169434e+00 -2.615694046020507812e+00 -4.615041351318359375e+01
-3.750295257568359375e+01 1.002131938934326172e+00 -4.261110305786132812e+00 1.002131938934326172e+00 -4.915268707275390625e+01 2.716319084167480469e+01 -4.261110305786132812e+00 2.716319084167480469e+01 -1.288037300109863281e+01
-4.690534973144531250e+01 -1.813839149475097656e+01 -1.492599678039550781e+01 -1.813839149475097656e+01 -6.694183349609375000e+01 1.981706428527832031e+01 -1.492599678039550781e+01 1.981706428527832031e+01 -4.229897689819335938e+01
-4.385451889038085938e+01 -1.780410051345825195e+00 3.004810333251953125e+00 -1.780410051345825195e+00 -5.199758529663085938e+01 5.750662803649902344e+00 3.004810333251953125e+00 5.750662803649902344e+00 -2.434120750427246094e+01
-1.427077102661132812e+01 2.078441238403320312e+01 4.074847221374511719e+00 2.078441238403320312e+01 -5.244163513183593750e+01 -1.104040050506591797e+01 4.074847221374511719e+00 -1.104040050506591797e+01 -6.718173980712890625e+01
-4.368838500976562500e+01 6.454930305480957031e+00 -1.919896697998046875e+01 6.454930305480957031e+00 -3.347547149658203125e+01 -3.600241422653198242e+00 -1.919896697998046875e+01 -3.600241422653198242e+00 -1.664177131652832031e+01
-2.511248016357421875e+01 4.679798126220703125e+00 2.701388835906982422e+00 4.679798126220703125e+00 -2.115792846679687500e+01 -1.063461208343505859e+01 2.701388835906982422e+00 -1.063461208343505859e+01 -2.596721267700195312e+01
-1.627537536621093750e+01 -5.881833553314208984e+00 -3.110207557678222656e+00 -5.881833553314208984e+00 -2.449500656127929688e+01 1.339860916137695312e+01 -3.110207557678222656e+00 1.339860916137695312e+01 -3.630592346191406250e+01
-4.962623596191406250e+01 -1.803739738464355469e+01 -1.795296669006347656e+01 -1.803739738464355469e+01 -4.216045761108398438e+01 1.013155269622802734e+01 -1.795296669006347656e+01 1.013155269622802734e+01 -4.743814086914062500e+01
-2.758097410202026367e+00 -1.080884933471679688e+00 -1.956090211868286133e+00 -1.080884933471679688e+00 -3.058896827697753906e+01 2.690074443817138672e+00 -1.956090211868286133e+00 2.690074443817138672e+00 -7.650353431701660156e+00
-3.704994583129882812e+01 2.704200744628906250e+01 -8.607924461364746094e+00 2.704200744628906250e+01 -5.418808746337890625e+01 2.645154297351837158e-01 -8.607924461364746094e+00 2.645154297351837158e-01 -2.481814575195312500e+01
-1.658307838439941406e+01 -3.064859962463378906e+01 -2.396689414978027344e+00 -3.064859962463378906e+01 -2.990525817871093750e+01 -1.230194664001464844e+01 -2.396689414978027344e+00 -1.230194664001464844e+01 5.055439949035644531e+00
-2.541953086853027344e+01 3.707331418991088867e+00 9.586698532104492188e+00 3.707331418991088867e+00 -4.391865158081054688e+01 1.090911579132080078e+01 9.586698532104492188e+00 1.090911579132080078e+01 -2.485742759704589844e+01
-2.076533699035644531e+01 1.589820194244384766e+01 1.259859561920166016e+01 1.589820194244384766e+01 -3.682964324951171875e+01 8.150039672851562500e+00 1.259859561920166016e+01 8.150039672851562500e+00 -3.045549392700195312e+01
-4.257719421386718750e+01 2.919981241226196289e+00 8.429648399353027344e+00 2.919981241226196289e+00 -4.128112792968750000e+01 8.673868328332901001e-02 8.429648399353027344e+00 8.673868328332901001e-02 -7.071616363525390625e+01
-1.122779560089111328e+01 4.306520938873291016e+00 7.873390674591064453e+00 4.306520938873291016e+00 -1.124188327789306641e+01 1.538740062713623047e+01 7.873390674591064453e+00 1.538740062713623047e+01 -3.999822998046875000e+01
-1.369307518005371094e+01 -2.003419494628906250e+01 7.866900563240051270e-01 -2.003419494628906250e+01 -2.067623138427734375e+00 1.833301162719726562e+01 7.866900563240051270e-01 1.833301162719726562e+01 -4.909288406372070312e+00
-1.658798217773437500e+01 -8.131048202514648438e+00 8.784601688385009766e-01 -8.131048202514648438e+00 -3.014945983886718750e+01 2.440726995468139648e+00 8.784601688385009766e-01 2.440726995468139648e+00 -2.811965942382812500e+01
-5.304207229614257812e+01 -1.102068614959716797e+01 5.392239570617675781e+00 -1.102068614959716797e+01 -3.086257553100585938e+01 6.116751194000244141e+00 5.392239570617675781e+00 6.116751194000244141e+00 -5.509568786621093750e+01
-1.839837074279785156e+01 -4.997394561767578125e+00 -4.434955120086669922e-01 -4.997394561767578125e+00 -3.290715408325195312e+01 -4.687229156494140625e+00 -4.434955120086669922e-01 -4.687229156494140625e+00 -2.796207618713378906e+01
-3.043134927749633789e+00 -8.735554695129394531e+00 1.718978691101074219e+01 -8.735554695129394531e+00 2.100197410583496094e+01 -2.531122684478759766e+00 1.718978691101074219e+01 -2.531122684478759766e+00 -2.525778579711914062e+01
-4.475516510009765625e+01 -6.137742996215820312e+00 -5.110363483428955078e+00 -6.137742996215820312e+00 -7.140895843505859375e+00 3.062188529968261719e+01 -5.110363483428955078e+00 3.062188529968261719e+01 -2.417865991592407227e+00
-1.637934303283691406e+01 -1.296105861663818359e+01 8.124174118041992188e+00 -1.296105861663818359e+01 -1.407368564605712891e+01 1.201545906066894531e+01 8.124174118041992188e+00 1.201545906066894531e+01 -2.766239547729492188e+01
-2.798372077941894531e+01 4.683599472045898438e+00 -5.352336883544921875e+00 4.683599472045898438e+00 -5.973026657104492188e+01 -1.503298640251159668e+00 -5.352336883544921875e+00 -1.503298640251159668e+00 -4.733033752441406250e+01
-3.332478332519531250e+01 3.680462837219238281e+00 7.719622135162353516e+00 3.680462837219238281e+00 -3.274335098266601562e+01 1.430093860626220703e+01 7.719622135162353516e+00 1.430093860626220703e+01 -3.724574279785156250e+01
-2.466998291015625000e+01 3.241221189498901367e+00 2.027734375000000000e+01 3.241221189498901367e+00 -3.177867698669433594e+01 -4.407359600067138672e+00 2.027734375000000000e+01 -4.407359600067138672e+00 -4.659267044067382812e+01
-3.723645782470703125e+01 3.964711427688598633e+00 3.740428924560546875e+00 3.964711427688598633e+00 -4.263083648681640625e+01 1.115617465972900391e+01 3.740428924560546875e+00 1.115617465972900391e+01 -1.929902267456054688e+01
-4.286487960815429688e+01 -4.805236339569091797e+00 9.816489219665527344e-01 -4.805236339569091797e+00 -3.561717224121093750e+01 -4.269942283630371094e+00 9.816489219665527344e-01 -4.269942283630371094e+00 -4.587828826904296875e+01
-3.319467163085937500e+01 1.488705825805664062e+01 -1.482987213134765625e+01 1.488705825805664062e+01 -6.951065826416015625e+01 -6.111667156219482422e+00 -1.482987213134765625e+01 -6.111667156219482422e+00 -6.975901794433593750e+01
-1.824793052673339844e+01 2.717409133911132812e+01 -6.705340862274169922e+00 2.717409133911132812e+01 -1.535326480865478516e+01 -9.176889419555664062e+00 -6.705340862274169922e+00 -9.176889419555664062e+00 -2.942289352416992188e+01
-3.529864501953125000e+01 -9.024592399597167969e+00 2.199392509460449219e+01 -9.024592399597167969e+00 -4.493091964721679688e+01 8.379417419433593750e+00 2.199392509460449219e+01 8.379417419433593750e+00 -7.775014495849609375e+01
-4.524967956542968750e+01 -1.020881938934326172e+01 8.164170265197753906e+00 -1.020881938934326172e+01 -2.222716140747070312e+01 -4.082173824310302734e+00 8.164170265197753906e+00 -4.082173824310302734e+00 -4.821327590942382812e+01
-8.794157028198242188e+00 -1.183125972747802734e+01 -1.662615394592285156e+01 -1.183125972747802734e+01 -1.898802947998046875e+01 -3.603793382644653320e+00 -1.662615394592285156e+01 -3.603793382644653320e+00 -2.602763557434082031e+01
-4.911762237548828125e+01 1.761564636230468750e+01 -6.096639633178710938e+00 1.761564636230468750e+01 -3.909213256835937500e+01 -1.072165203094482422e+01 -6.096639633178710938e+00 -1.072165203094482422e+01 -2.590424537658691406e+01
-2.970905494689941406e+01 -1.043495368957519531e+01 -8.508445739746093750e+00 -1.043495368957519531e+01 -3.633156585693359375e+01 5.282455444335937500e+00 -8.508445739746093750e+00 5.282455444335937500e+00 -5.244366455078125000e+01
-1.098045349121093750e+01 4.137076854705810547e+00 7.994142532348632812e+00 4.137076854705810547e+00 -1.189880561828613281e+01 -5.888531208038330078e+00 7.994142532348632812e+00 -5.888531208038330078e+00 -2.158658599853515625e+01
-2.321083831787109375e+01 -5.493715763092041016e+00 3.044242382049560547e+00 -5.493715763092041016e+00 -3.472787094116210938e+01 1.492164516448974609e+01 3.044242382049560547e+00 1.492164516448974609e+01 -1.381201553344726562e+01
-3.235197448730468750e+01 8.711910247802734375e+00 -3.564649343490600586e+00 8.711910247802734375e+00 -2.119049644470214844e+01 8.725873947143554688e+00 -3.564649343490600586e+00 8.725873947143554688e+00 -2.863171195983886719e+01
-3.814118957519531250e+01 -7.600226998329162598e-01 -7.053271770477294922e+00 -7.600226998329162598e-01 -2.486873388290405273e+00 1.718251037597656250e+01 -7.053271770477294922e+00 1.718251037597656250e+01 -1.448968315124511719e+01
-6.122126770019531250e+01 5.989682197570800781e+00 5.722924709320068359e+00 5.989682197570800781e+00 -3.401443099975585938e+01 2.379195213317871094e+01 5.722924709320068359e+00 2.379195213317871094e+01 -6.532608032226562500e+01
-3.651308822631835938e+01 -1.169617056846618652e+00 -6.283783912658691406e+00 -1.169617056846618652e+00 -6.677715301513671875e+01 -2.138367652893066406e+00 -6.283783912658691406e+00 -2.138367652893066406e+00 -4.588525009155273438e+01
-2.731170654296875000e+01 8.026960372924804688e+00 -1.262343311309814453e+01 8.026960372924804688e+00 -3.146685600280761719e+01 1.908994102478027344e+01 -1.262343311309814453e+01 1.908994102478027344e+01 -1.795807456970214844e+01
-5.279979324340820312e+01 2.354533386230468750e+01 6.688995361328125000e-01 2.354533386230468750e+01 -2.110135841369628906e+01 -1.965362310409545898e+00 6.688995361328125000e-01 -1.965362310409545898e+00 -4.348676300048828125e+01
-3.068530845642089844e+01 4.932364463806152344e+00 -6.057278513908386230e-01 4.932364463806152344e+00 -1.983589172363281250e+01 4.945818901062011719e+00 -6.057278513908386230e-01 4.945818901062011719e+00 -2.448421478271484375e+01
-3.484072113037109375e+01 -1.434534168243408203e+01 1.201558232307434082e+00 -1.434534168243408203e+01 -4.184442138671875000e+01 1.755428314208984375e+01 1.201558232307434082e+00 1.755428314208984375e+01 -4.851597976684570312e+01
-5.930781936645507812e+01 4.041299819946289062e+00 1.208698463439941406e+01 4.041299819946289062e+00 -5.685232162475585938e+01 5.318471431732177734e+00 1.208698463439941406e+01 5.318471431732177734e+00 -5.306257247924804688e+01
-4.783099746704101562e+01 -2.493276119232177734e+00 2.790202617645263672e+00 -2.493276119232177734e+00 -4.056942367553710938e+01 -7.180700778961181641e+00 2.790202617645263672e+00 -7.180700778961181641e+00 -2.667925453186035156e+01
-5.472126007080078125e+01 -1.051136875152587891e+01 5.467044353485107422e+00 -1.051136875152587891e+01 -6.786062622070312500e+01 -1.703086853027343750e+01 5.467044353485107422e+00 -1.703086853027343750e+01 -6.823508453369140625e+01
-3.356625080108642578e+00 -1.032924175262451172e+01 1.596636962890625000e+01 -1.032924175262451172e+01 2.055644607543945312e+01 -1.203316688537597656e+01 1.596636962890625000e+01 -1.203316688537597656e+01 -2.222409057617187500e+01
-5.316630363464355469e+00 1.167249965667724609e+01 -2.218398284912109375e+01 1.167249965667724609e+01 4.068467617034912109e+00 -6.443555831909179688e+00 -2.218398284912109375e+01 -6.443555831909179688e+00 -5.601930999755859375e+01
-1.666738128662109375e+01 3.360130310058593750e+00 8.370683670043945312e+00 3.360130310058593750e+00 -1.672439765930175781e+01 -5.215270042419433594e+00 8.370683670043945312e+00 -5.215270042419433594e+00 -7.305197238922119141e+00
-4.460518264770507812e+01 -5.150156021118164062e-01 -1.645598030090332031e+01 -5.150156021118164062e-01 -3.751967620849609375e+01 1.131232357025146484e+01 -1.645598030090332031e+01 1.131232357025146484e+01 -2.174145126342773438e+01
-4.150983047485351562e+01 2.399154663085937500e+00 -9.013529777526855469e+00 2.399154663085937500e+00 -1.269351577758789062e+01 7.329827308654785156e+00 -9.013529777526855469e+00 7.329827308654785156e+00 -3.197555160522460938e+01
-2.004960632324218750e+01 1.062058353424072266e+01 8.684482574462890625e+00 1.062058353424072266e+01 -3.043179702758789062e+01 -1.313584923744201660e+00 8.684482574462890625e+00 -1.313584923744201660e+00 -8.197052001953125000e+00
-2.928942298889160156e+01 -5.348049640655517578e+00 9.529244422912597656e+00 -5.348049640655517578e+00 -3.423510360717773438e+01 -6.957749366760253906e+00 9.529244422912597656e+00 -6.957749366760253906e+00 -2.248880004882812500e+01