-6.089221875000000000e+04
-6.085664843750000000e+04
-6.084639843750000000e+04
-6.084568750000000000e+04
-6.084571093750000000e+04
-6.089221875000000000e+04
-6.086641796875000000e+04
-6.084503906250000000e+04
-6.084613671875000000e+04
-6.085241406250000000e+04
-6.084852734375000000e+04
-6.085050390625000000e+04
-6.084776953125000000e+04
-6.084504296875000000e+04
-6.085132421875000000e+04
-6.089221875000000000e+04
-6.086263671875000000e+04
-6.082865234375000000e+04
-6.083297265625000000e+04
-6.083136328125000000e+04
-6.083387109375000000e+04
-6.083114843750000000e+04
-6.083711718750000000e+04
-6.083501953125000000e+04
-6.083782031250000000e+04
-6.089221875000000000e+04
-6.083551171875000000e+04
-6.083619140625000000e+04
-6.083427343750000000e+04
-6.082974609375000000e+04
-6.083242578125000000e+04
-6.083483984375000000e+04
-6.083178515625000000e+04
-6.083153515625000000e+04
-6.083350781250000000e+04
-6.083181250000000000e+04
-6.083521875000000000e+04
-6.089221875000000000e+04
-6.083819921875000000e+04
-6.082859765625000000e+04
-6.081619140625000000e+04
-6.082399609375000000e+04
-6.082351562500000000e+04
-6.082274218750000000e+04
-6.081796484375000000e+04
-6.081574218750000000e+04
-6.081559765625000000e+04
-6.081741796875000000e+04
-6.081769140625000000e+04
-6.081615234375000000e+04
-6.081717187500000000e+04
-6.089221875000000000e+04
-6.082991406250000000e+04
-6.081733593750000000e+04
-6.082083984375000000e+04
-6.081807421875000000e+04
-6.081824218750000000e+04
-6.081392578125000000e+04
-6.082297265625000000e+04
-6.081939453125000000e+04
-6.081804296875000000e+04
-6.081519921875000000e+04
-6.082105468750000000e+04
-6.081782421875000000e+04
-6.082494921875000000e+04
-6.082383984375000000e+04
-6.082266796875000000e+04
-6.081768750000000000e+04
-6.081821875000000000e+04
-6.081961328125000000e+04
-6.081525000000000000e+04
-6.081287890625000000e+04
-6.089201171875000000e+04
-6.084483203125000000e+04
-6.084459765625000000e+04
-6.084515625000000000e+04
-6.084106250000000000e+04
-6.084616406250000000e+04
-6.089201171875000000e+04
-6.084684375000000000e+04
-6.084866796875000000e+04
-6.084689843750000000e+04
-6.084582421875000000e+04
-6.089201171875000000e+04
-6.083581640625000000e+04
-6.083720312500000000e+04
-6.083310156250000000e+04
-6.083090234375000000e+04
-6.083405078125000000e+04
-6.083453906250000000e+04
-6.083360546875000000e+04
-6.082842187500000000e+04
-6.082995312500000000e+04
-6.083155859375000000e+04
-6.089201171875000000e+04
-6.084712890625000000e+04
-6.084395312500000000e+04
-6.083334375000000000e+04
-6.083407031250000000e+04
-6.083715234375000000e+04
-6.083632812500000000e+04
-6.083432421875000000e+04
-6.083512500000000000e+04
-6.083408203125000000e+04
-6.083854296875000000e+04
-6.083247265625000000e+04
-6.089201171875000000e+04
-6.082605468750000000e+04
-6.081935937500000000e+04
-6.082084765625000000e+04
-6.081708593750000000e+04
-6.081280859375000000e+04
-6.081770703125000000e+04
-6.081378515625000000e+04
-6.081504296875000000e+04
-6.081523437500000000e+04
-6.081418750000000000e+04
-6.081374218750000000e+04
-6.081594140625000000e+04
-6.081517968750000000e+04
-6.080862890625000000e+04
-6.081260156250000000e+04
-6.081502734375000000e+04
-6.081254687500000000e+04
-6.081203906250000000e+04
-6.081033984375000000e+04
-6.080713671875000000e+04
-6.089201171875000000e+04
-6.084863281250000000e+04
-6.081444140625000000e+04
-6.081437890625000000e+04
-6.081588671875000000e+04
-6.081718359375000000e+04
-6.081760937500000000e+04
-6.081986718750000000e+04
-6.082218359375000000e+04
-6.081594531250000000e+04
-6.081428515625000000e+04
-6.081455468750000000e+04
-6.081409375000000000e+04
-6.081371093750000000e+04
-6.080989062500000000e+04
-6.081104296875000000e+04
-6.081185156250000000e+04
-6.081336718750000000e+04
-6.080727343750000000e+04
-6.080770703125000000e+04
-6.080892187500000000e+04
-6.081194140625000000e+04
-6.081388671875000000e+04
-6.081519531250000000e+04
-6.081309375000000000e+04
-6.081169140625000000e+04
-6.080907031250000000e+04
-6.081171093750000000e+04
-6.081107031250000000e+04
-6.081513281250000000e+04
-6.081550390625000000e+04
-6.081517187500000000e+04
-6.081219921875000000e+04
-6.081423437500000000e+04
-6.081220312500000000e+04
-6.080788671875000000e+04
-6.089219140625000000e+04
-6.085207031250000000e+04
-6.084641015625000000e+04
-6.084536328125000000e+04
-6.084703125000000000e+04
-6.084556250000000000e+04
-6.084519531250000000e+04
-6.084813671875000000e+04
-6.089219140625000000e+04
-6.084916015625000000e+04
-6.084528906250000000e+04
-6.084499218750000000e+04
-6.084764453125000000e+04
-6.084644921875000000e+04
-6.084907421875000000e+04
-6.084445703125000000e+04
-6.085077734375000000e+04
-6.085016015625000000e+04
-6.084723828125000000e+04
-6.089219140625000000e+04
-6.083462890625000000e+04
-6.083410156250000000e+04
-6.083260937500000000e+04
-6.083438671875000000e+04
-6.083086718750000000e+04
-6.083171093750000000e+04
-6.083043750000000000e+04
-6.083108593750000000e+04
-6.083472265625000000e+04
-6.089219140625000000e+04
-6.083478515625000000e+04
-6.083474609375000000e+04
-6.083378125000000000e+04
-6.083866796875000000e+04
-6.083023046875000000e+04
-6.089219140625000000e+04
-6.083966406250000000e+04
-6.081825000000000000e+04
-6.081636328125000000e+04
-6.082035546875000000e+04
-6.081642578125000000e+04
-6.082079687500000000e+04
-6.082019531250000000e+04
-6.081538281250000000e+04
-6.081894531250000000e+04
-6.081929687500000000e+04
-6.081858203125000000e+04
-6.089219140625000000e+04
-6.082019140625000000e+04
-6.081900390625000000e+04
-6.082189843750000000e+04
-6.082230078125000000e+04
-6.081730859375000000e+04
-6.081857812500000000e+04
-6.081804687500000000e+04
-6.081524609375000000e+04
-6.081816796875000000e+04
-6.082133984375000000e+04
-6.081857421875000000e+04
-6.089325390625000000e+04
-6.085871093750000000e+04
-6.084721093750000000e+04
-6.084865625000000000e+04
-6.084646875000000000e+04
-6.084889453125000000e+04
-6.084689062500000000e+04
-6.084776953125000000e+04
-6.084773828125000000e+04
-6.089325390625000000e+04
-6.084665625000000000e+04
-6.084497265625000000e+04
-6.084816796875000000e+04
-6.084736718750000000e+04
-6.084596875000000000e+04
-6.084698046875000000e+04
-6.084941015625000000e+04
-6.085027343750000000e+04
-6.084859765625000000e+04
-6.084896875000000000e+04
-6.089325390625000000e+04
-6.085410546875000000e+04
-6.083136328125000000e+04
-6.083560156250000000e+04
-6.083587500000000000e+04
-6.083403906250000000e+04
-6.083056640625000000e+04
-6.083274218750000000e+04
-6.083380078125000000e+04
-6.089325390625000000e+04
-6.083341796875000000e+04
-6.083633593750000000e+04
-6.083734765625000000e+04
-6.083703515625000000e+04
-6.083201562500000000e+04
-6.089325390625000000e+04
-6.085648437500000000e+04
-6.084893750000000000e+04
-6.082012500000000000e+04
-6.082354296875000000e+04
-6.082433984375000000e+04
-6.081516015625000000e+04
-6.082080468750000000e+04
-6.081774218750000000e+04
-6.081842578125000000e+04
-6.082158593750000000e+04
-6.082023437500000000e+04
-6.081934375000000000e+04
-6.081792578125000000e+04
-6.081997265625000000e+04
-6.082112500000000000e+04
-6.081826171875000000e+04
-6.082333203125000000e+04
-6.081973437500000000e+04
-6.081685546875000000e+04
-6.081518359375000000e+04
-6.081651953125000000e+04
-6.081484765625000000e+04
-6.081537500000000000e+04
-6.089325390625000000e+04
-6.081987109375000000e+04
-6.081819140625000000e+04
-6.082157812500000000e+04
-6.082102343750000000e+04
-6.081830859375000000e+04
-6.081949609375000000e+04
-6.081987500000000000e+04
-6.082119531250000000e+04
-6.081688281250000000e+04
-6.081541406250000000e+04
-6.082184375000000000e+04
-6.081019531250000000e+04
-6.081163281250000000e+04
-6.081077734375000000e+04
-6.081469140625000000e+04
-6.081893750000000000e+04
-6.081989843750000000e+04
-6.089408593750000000e+04
-6.084681250000000000e+04
-6.084749218750000000e+04
-6.084795703125000000e+04
-6.084955859375000000e+04
-6.084900390625000000e+04
-6.084281250000000000e+04
-6.084600390625000000e+04
-6.089408984375000000e+04
-6.086741796875000000e+04
-6.084653515625000000e+04
-6.084867968750000000e+04
-6.089408984375000000e+04
-6.083475390625000000e+04
-6.082942578125000000e+04
-6.082826562500000000e+04
-6.083259765625000000e+04
-6.083063671875000000e+04
-6.083351562500000000e+04
-6.083209375000000000e+04
-6.083189843750000000e+04
-6.083474609375000000e+04
-6.083550000000000000e+04
-6.089408593750000000e+04
-6.083098046875000000e+04
-6.083569531250000000e+04
-6.083773828125000000e+04
-6.083521875000000000e+04
-6.083241015625000000e+04
-6.083379296875000000e+04
-6.083102343750000000e+04
-6.083444531250000000e+04
-6.083585156250000000e+04
-6.083421093750000000e+04
-6.089408984375000000e+04
-6.082591796875000000e+04
-6.082084375000000000e+04
-6.081671093750000000e+04
-6.081691796875000000e+04
-6.081889062500000000e+04
-6.081602734375000000e+04
-6.081523437500000000e+04
-6.081911718750000000e+04
-6.081960937500000000e+04
-6.082058203125000000e+04
-6.081953125000000000e+04
-6.081749218750000000e+04
-6.081477734375000000e+04
-6.082035156250000000e+04
-6.081442187500000000e+04
-6.081090234375000000e+04
-6.080849218750000000e+04
-6.080952734375000000e+04
-6.080963671875000000e+04
-6.080789453125000000e+04
-6.080494140625000000e+04
-6.081203515625000000e+04
-6.080985546875000000e+04
-6.080707031250000000e+04
-6.080442187500000000e+04
-6.080573046875000000e+04
-6.080371093750000000e+04
-6.089408593750000000e+04
-6.084833593750000000e+04
-6.081897656250000000e+04
-6.082187109375000000e+04
-6.082252343750000000e+04
-6.081953906250000000e+04
-6.081719531250000000e+04
-6.081666796875000000e+04
-6.081672265625000000e+04
-6.081905078125000000e+04
-6.082016796875000000e+04
-6.081804296875000000e+04
-6.082004296875000000e+04
-6.081574609375000000e+04
-6.081902343750000000e+04
-6.081443750000000000e+04
-6.081425781250000000e+04
-6.081435156250000000e+04
-6.089226562500000000e+04
-6.085002734375000000e+04
-6.084461328125000000e+04
-6.084814062500000000e+04
-6.084707031250000000e+04
-6.089226562500000000e+04
-6.084487500000000000e+04
-6.084421484375000000e+04
-6.084743359375000000e+04
-6.085235937500000000e+04
-6.084907031250000000e+04
-6.084650781250000000e+04
-6.089226562500000000e+04
-6.083191796875000000e+04
-6.083487890625000000e+04
-6.082890625000000000e+04
-6.083457031250000000e+04
-6.083144531250000000e+04
-6.089226562500000000e+04
-6.084086328125000000e+04
-6.083646484375000000e+04
-6.083310156250000000e+04
-6.083310156250000000e+04
-6.083298437500000000e+04
-6.082912890625000000e+04
-6.083107421875000000e+04
-6.083433203125000000e+04
-6.083267187500000000e+04
-6.083533593750000000e+04
-6.083485156250000000e+04
-6.083349218750000000e+04
-6.083460156250000000e+04
-6.089226562500000000e+04
-6.085766406250000000e+04
-6.084746093750000000e+04
-6.083076562500000000e+04
-6.082263671875000000e+04
-6.081385937500000000e+04
-6.081393750000000000e+04
-6.081707812500000000e+04
-6.081650390625000000e+04
-6.081319140625000000e+04
-6.081793750000000000e+04
-6.081612109375000000e+04
-6.081609375000000000e+04
-6.081723046875000000e+04
-6.081590625000000000e+04
-6.081862109375000000e+04
-6.081716796875000000e+04
-6.081893359375000000e+04
-6.081576953125000000e+04
-6.081346484375000000e+04
-6.081466406250000000e+04
-6.089226562500000000e+04
-6.084049609375000000e+04
-6.083146093750000000e+04
-6.082129296875000000e+04
-6.082017578125000000e+04
-6.082062890625000000e+04
-6.081922656250000000e+04
-6.081990234375000000e+04
-6.081722265625000000e+04
-6.081865625000000000e+04
-6.081774609375000000e+04
-6.082303515625000000e+04
-6.081553515625000000e+04
-6.082037500000000000e+04
-6.081973828125000000e+04
-6.082214453125000000e+04
-6.081660937500000000e+04
-6.084850781250000000e+04
-6.084593750000000000e+04
-6.084356640625000000e+04
-6.084571875000000000e+04
-6.084643359375000000e+04
-6.084334375000000000e+04
-6.084252734375000000e+04
-6.084388671875000000e+04
-6.084673437500000000e+04
-6.084456250000000000e+04
-6.084772656250000000e+04
-6.084542187500000000e+04
-6.084643750000000000e+04
-6.084730468750000000e+04
-6.084617968750000000e+04
-6.084480859375000000e+04
-6.084911718750000000e+04
-6.086141796875000000e+04
-6.083222656250000000e+04
-6.083264062500000000e+04
-6.083552734375000000e+04
-6.083222656250000000e+04
-6.083397656250000000e+04
-6.083025000000000000e+04
-6.083475000000000000e+04
-6.083548437500000000e+04
-6.083706640625000000e+04
-6.083255859375000000e+04
-6.083278515625000000e+04
-6.083778125000000000e+04
-6.083295703125000000e+04
-6.083251562500000000e+04
-6.083470312500000000e+04
-6.083292578125000000e+04
-6.083008593750000000e+04
-6.083367187500000000e+04
-6.083280078125000000e+04
-6.081879687500000000e+04
-6.082104296875000000e+04
-6.081973437500000000e+04
-6.081706640625000000e+04
-6.081471093750000000e+04
-6.081846875000000000e+04
-6.081953125000000000e+04
-6.081664062500000000e+04
-6.081751171875000000e+04
-6.081781640625000000e+04
-6.081764843750000000e+04
-6.081589843750000000e+04
-6.081748046875000000e+04
-6.081865234375000000e+04
-6.081522265625000000e+04
-6.081630078125000000e+04
-6.081761718750000000e+04
-6.081046875000000000e+04
-6.085579687500000000e+04
-6.082759375000000000e+04
-6.081648046875000000e+04
-6.081945703125000000e+04
-6.081883984375000000e+04
-6.082076562500000000e+04
-6.081929296875000000e+04
-6.082044140625000000e+04
-6.081523437500000000e+04
-6.081745703125000000e+04
-6.082045703125000000e+04
-6.081909765625000000e+04
-6.082447265625000000e+04
-6.081741796875000000e+04
-6.081594531250000000e+04
-6.081186328125000000e+04
-6.081457812500000000e+04
-6.081401562500000000e+04
-6.081459765625000000e+04
-6.081703125000000000e+04
-6.081960937500000000e+04
-6.089291796875000000e+04
-6.086700781250000000e+04
-6.084716015625000000e+04
-6.084491796875000000e+04
-6.084601171875000000e+04
-6.089291796875000000e+04
-6.086088671875000000e+04
-6.084664062500000000e+04
-6.084371875000000000e+04
-6.084152343750000000e+04
-6.084721484375000000e+04
-6.089291796875000000e+04
-6.084028125000000000e+04
-6.082934765625000000e+04
-6.083451562500000000e+04
-6.083666015625000000e+04
-6.083499218750000000e+04
-6.083027734375000000e+04
-6.083140625000000000e+04
-6.083145703125000000e+04
-6.082981640625000000e+04
-6.082962109375000000e+04
-6.083064843750000000e+04
-6.083153906250000000e+04
-6.083211718750000000e+04
-6.089291796875000000e+04
-6.083228515625000000e+04
-6.083204687500000000e+04
-6.082948828125000000e+04
-6.083228125000000000e+04
-6.083520703125000000e+04
-6.084012500000000000e+04
-6.083262500000000000e+04
-6.083424609375000000e+04
-6.083458984375000000e+04
-6.089291796875000000e+04
-6.084143359375000000e+04
-6.082445703125000000e+04
-6.082018359375000000e+04
-6.081771875000000000e+04
-6.081469531250000000e+04
-6.081317187500000000e+04
-6.081800390625000000e+04
-6.081773046875000000e+04
-6.081777343750000000e+04
-6.081898437500000000e+04
-6.081471875000000000e+04
-6.081398046875000000e+04
-6.081385546875000000e+04
-6.081361328125000000e+04
-6.081255859375000000e+04
-6.081196484375000000e+04
-6.081487109375000000e+04
-6.081898437500000000e+04
-6.082005078125000000e+04
-6.081752734375000000e+04
-6.081281640625000000e+04
-6.081458984375000000e+04
-6.089291796875000000e+04
-6.082748046875000000e+04
-6.082381250000000000e+04
-6.081377734375000000e+04
-6.082143750000000000e+04
-6.082350781250000000e+04
-6.082041406250000000e+04
-6.081871484375000000e+04
-6.081899218750000000e+04
-6.081248437500000000e+04
-6.082097265625000000e+04
-6.081905078125000000e+04
-6.082029296875000000e+04
-6.081535156250000000e+04
-6.080723828125000000e+04
-6.081068359375000000e+04
-6.081119921875000000e+04
-6.081570312500000000e+04
-6.081709765625000000e+04
-6.081437500000000000e+04
-6.081654687500000000e+04
-6.081122656250000000e+04
-6.080720703125000000e+04
-6.080873046875000000e+04
-6.080770312500000000e+04
-6.081103515625000000e+04
-6.081575781250000000e+04
-6.081673437500000000e+04
-6.081142578125000000e+04
-6.081167187500000000e+04
-6.080676953125000000e+04
-6.080643359375000000e+04
-6.081162890625000000e+04
-6.081332031250000000e+04
-6.081332031250000000e+04
-6.089139453125000000e+04
-6.084453515625000000e+04
-6.084778515625000000e+04
-6.084651171875000000e+04
-6.084646093750000000e+04
-6.084768359375000000e+04
-6.084429296875000000e+04
-6.084723828125000000e+04
-6.084828906250000000e+04
-6.084751171875000000e+04
-6.084909375000000000e+04
-6.084581640625000000e+04
-6.084999218750000000e+04
-6.089139453125000000e+04
-6.086722656250000000e+04
-6.084460546875000000e+04
-6.084458984375000000e+04
-6.084902734375000000e+04
-6.084487500000000000e+04
-6.089139453125000000e+04
-6.084421484375000000e+04
-6.082920312500000000e+04
-6.082880468750000000e+04
-6.083048046875000000e+04
-6.083021093750000000e+04
-6.083410546875000000e+04
-6.083597265625000000e+04
-6.089139453125000000e+04
-6.082969921875000000e+04
-6.083641796875000000e+04
-6.083542968750000000e+04
-6.082964453125000000e+04
-6.083045703125000000e+04
-6.082754296875000000e+04
-6.083149218750000000e+04
-6.083705468750000000e+04
-6.083676562500000000e+04
-6.083376562500000000e+04
-6.089139453125000000e+04
-6.082309375000000000e+04
-6.081794140625000000e+04
-6.081762109375000000e+04
-6.081780859375000000e+04
-6.082121875000000000e+04
-6.081899218750000000e+04
-6.081555078125000000e+04
-6.082285937500000000e+04
-6.082282812500000000e+04
-6.081941406250000000e+04
-6.082101953125000000e+04
-6.082357031250000000e+04
-6.089139453125000000e+04
-6.084505859375000000e+04
-6.082891406250000000e+04
-6.082701562500000000e+04
-6.081964062500000000e+04
-6.082236718750000000e+04
-6.082031250000000000e+04
-6.081764453125000000e+04
-6.081517187500000000e+04
-6.081422656250000000e+04
-6.081277734375000000e+04
-6.081014843750000000e+04
-6.082016796875000000e+04
-6.082451953125000000e+04
-6.082139453125000000e+04
-6.081989453125000000e+04
-6.081606250000000000e+04
-6.081245703125000000e+04
-6.081821093750000000e+04
-6.082076562500000000e+04
-6.081823437500000000e+04
-6.081919140625000000e+04
-6.081637109375000000e+04
-6.081825781250000000e+04
-6.081315234375000000e+04
-6.082272656250000000e+04
-6.089143359375000000e+04
-6.085905468750000000e+04
-6.084866796875000000e+04
-6.084665234375000000e+04
-6.084980078125000000e+04
-6.084818359375000000e+04
-6.084973437500000000e+04
-6.084901953125000000e+04
-6.084788281250000000e+04
-6.084913281250000000e+04
-6.084428125000000000e+04
-6.084696484375000000e+04
-6.084768359375000000e+04
-6.085016406250000000e+04
-6.084846484375000000e+04
-6.089143359375000000e+04
-6.084598437500000000e+04
-6.084809375000000000e+04
-6.084810546875000000e+04
-6.084719921875000000e+04
-6.084864453125000000e+04
-6.089143359375000000e+04
-6.084038671875000000e+04
-6.083377734375000000e+04
-6.083309375000000000e+04
-6.082915625000000000e+04
-6.083806640625000000e+04
-6.083640234375000000e+04
-6.083295312500000000e+04
-6.083394921875000000e+04
-6.083310546875000000e+04
-6.083712500000000000e+04
-6.083669921875000000e+04
-6.083268750000000000e+04
-6.083611328125000000e+04
-6.083397265625000000e+04
-6.083526171875000000e+04
-6.082790234375000000e+04
-6.083060546875000000e+04
-6.083420312500000000e+04
-6.089143359375000000e+04
-6.084679296875000000e+04
-6.083628906250000000e+04
-6.083717578125000000e+04
-6.083450781250000000e+04
-6.083259375000000000e+04
-6.083277343750000000e+04
-6.083126171875000000e+04
-6.083288281250000000e+04
-6.083478125000000000e+04
-6.089143359375000000e+04
-6.081567968750000000e+04
-6.081609765625000000e+04
-6.081495703125000000e+04
-6.081821093750000000e+04
-6.081782812500000000e+04
-6.081997265625000000e+04
-6.082148046875000000e+04
-6.081901171875000000e+04
-6.081091015625000000e+04
-6.081934375000000000e+04
-6.081926171875000000e+04
-6.081929687500000000e+04
-6.081647656250000000e+04
-6.081282031250000000e+04
-6.081770312500000000e+04
-6.081580468750000000e+04
-6.081552734375000000e+04
-6.081858203125000000e+04
-6.081518750000000000e+04
-6.089143359375000000e+04
-6.082710156250000000e+04
-6.081667578125000000e+04
-6.081675390625000000e+04
-6.081795703125000000e+04
-6.081324218750000000e+04
-6.081757031250000000e+04
-6.081966796875000000e+04
-6.081518750000000000e+04
-6.080998437500000000e+04
-6.080698046875000000e+04
-6.081782031250000000e+04
-6.081662500000000000e+04
-6.081463671875000000e+04
-6.082169921875000000e+04
-6.082303906250000000e+04
-6.089298046875000000e+04
-6.085073437500000000e+04
-6.085012109375000000e+04
-6.085111718750000000e+04
-6.084898046875000000e+04
-6.084818750000000000e+04
-6.084879296875000000e+04
-6.084622265625000000e+04
-6.084903125000000000e+04
-6.084871093750000000e+04
-6.084721875000000000e+04
-6.084919921875000000e+04
-6.089298046875000000e+04
-6.085857812500000000e+04
-6.084653125000000000e+04
-6.084854687500000000e+04
-6.089298046875000000e+04
-6.084350390625000000e+04
-6.083203515625000000e+04
-6.083433984375000000e+04
-6.083040234375000000e+04
-6.083451171875000000e+04
-6.083354687500000000e+04
-6.083054687500000000e+04
-6.083037500000000000e+04
-6.083271875000000000e+04
-6.083350390625000000e+04
-6.082942578125000000e+04
-6.089298046875000000e+04
-6.086333984375000000e+04
-6.083976171875000000e+04
-6.083379687500000000e+04
-6.083329296875000000e+04
-6.083205078125000000e+04
-6.083110156250000000e+04
-6.083453125000000000e+04
-6.083365234375000000e+04
-6.083663281250000000e+04
-6.083355468750000000e+04
-6.083392968750000000e+04
-6.083225781250000000e+04
-6.083135546875000000e+04
-6.083181640625000000e+04
-6.089298046875000000e+04
-6.082065234375000000e+04
-6.081480859375000000e+04
-6.082369531250000000e+04
-6.082119531250000000e+04
-6.081895312500000000e+04
-6.081862890625000000e+04
-6.081671093750000000e+04
-6.081184375000000000e+04
-6.081728906250000000e+04
-6.081893750000000000e+04
-6.081714843750000000e+04
-6.081333203125000000e+04
-6.081578906250000000e+04
-6.081780078125000000e+04
-6.080934765625000000e+04
-6.081351562500000000e+04
-6.080970312500000000e+04
-6.080941406250000000e+04
-6.089298046875000000e+04
-6.083806250000000000e+04
-6.081625781250000000e+04
-6.081819921875000000e+04
-6.081814062500000000e+04
-6.081331640625000000e+04
-6.081666015625000000e+04
-6.081931640625000000e+04
-6.082078125000000000e+04
-6.081523828125000000e+04
-6.082092187500000000e+04
-6.082044921875000000e+04
-6.081920703125000000e+04
-6.082489453125000000e+04
-6.081881640625000000e+04
-6.082091406250000000e+04
-6.082179296875000000e+04
-6.082125000000000000e+04
-6.082618359375000000e+04
-6.082124609375000000e+04
-6.081505859375000000e+04
-6.081621093750000000e+04
-6.081631640625000000e+04
