1.822800064086914062e+01 0.000000000000000000e+00 0.000000000000000000e+00 4.070000052452087402e-01 1.906299972534179688e+01 0.000000000000000000e+00 3.610000014305114746e-01 1.300000026822090149e-02 1.893300056457519531e+01
1.892200088500976562e+01 0.000000000000000000e+00 0.000000000000000000e+00 3.750000000000000000e-01 1.938500022888183594e+01 0.000000000000000000e+00 -2.349999994039535522e-01 3.900000080466270447e-02 1.867300033569335938e+01
1.849399948120117188e+01 0.000000000000000000e+00 0.000000000000000000e+00 1.909999996423721313e-01 1.899099922180175781e+01 0.000000000000000000e+00 2.860000133514404297e-01 1.599999964237213135e-01 1.936400032043457031e+01
1.910300064086914062e+01 0.000000000000000000e+00 0.000000000000000000e+00 -1.030000001192092896e-01 1.858499908447265625e+01 0.000000000000000000e+00 5.469999909400939941e-01 5.700000002980232239e-02 1.875000000000000000e+01
1.895400047302246094e+01 0.000000000000000000e+00 0.000000000000000000e+00 5.329999923706054688e-01 1.842000007629394531e+01 0.000000000000000000e+00 2.419999986886978149e-01 -1.000000014901161194e-01 1.847599983215332031e+01
1.843000030517578125e+01 0.000000000000000000e+00 0.000000000000000000e+00 4.110000133514404297e-01 1.927499961853027344e+01 0.000000000000000000e+00 3.650000095367431641e-01 1.300000026822090149e-02 1.914299964904785156e+01
1.870700073242187500e+01 0.000000000000000000e+00 0.000000000000000000e+00 -2.269999980926513672e-01 1.799699974060058594e+01 0.000000000000000000e+00 4.079999923706054688e-01 -3.149999976158142090e-01 1.838599967956542969e+01
1.780599975585937500e+01 0.000000000000000000e+00 0.000000000000000000e+00 1.840000003576278687e-01 1.828400039672851562e+01 0.000000000000000000e+00 2.750000059604644775e-01 1.539999991655349731e-01 1.864299964904785156e+01
1.840800094604492188e+01 0.000000000000000000e+00 0.000000000000000000e+00 0.000000000000000000e+00 1.840800094604492188e+01 0.000000000000000000e+00 0.000000000000000000e+00 0.000000000000000000e+00 1.840800094604492188e+01
1.859000015258789062e+01 0.000000000000000000e+00 0.000000000000000000e+00 -3.759999871253967285e-01 1.919799995422363281e+01 0.000000000000000000e+00 -5.099999904632568359e-02 -8.500000089406967163e-02 1.881500053405761719e+01
1.891699981689453125e+01 0.000000000000000000e+00 0.000000000000000000e+00 1.539999991655349731e-01 1.835400009155273438e+01 0.000000000000000000e+00 1.099999994039535522e-01 2.269999980926513672e-01 1.815800094604492188e+01
1.877400016784667969e+01 0.000000000000000000e+00 0.000000000000000000e+00 0.000000000000000000e+00 1.877400016784667969e+01 0.000000000000000000e+00 0.000000000000000000e+00 0.000000000000000000e+00 1.877400016784667969e+01
1.846699905395507812e+01 0.000000000000000000e+00 0.000000000000000000e+00 5.199999809265136719e-01 1.794700050354003906e+01 0.000000000000000000e+00 2.360000014305114746e-01 -9.700000286102294922e-02 1.800099945068359375e+01
1.886599922180175781e+01 0.000000000000000000e+00 0.000000000000000000e+00 -3.819999992847442627e-01 1.948299980163574219e+01 0.000000000000000000e+00 -5.200000107288360596e-02 -8.600000292062759399e-02 1.909399986267089844e+01
1.802499961853027344e+01 0.000000000000000000e+00 0.000000000000000000e+00 4.020000100135803223e-01 1.885099983215332031e+01 0.000000000000000000e+00 3.569999933242797852e-01 1.300000026822090149e-02 1.872299957275390625e+01
1.805100059509277344e+01 0.000000000000000000e+00 0.000000000000000000e+00 1.870000064373016357e-01 1.853599929809570312e+01 0.000000000000000000e+00 2.790000140666961670e-01 1.560000032186508179e-01 1.889999961853027344e+01
1.801000022888183594e+01 0.000000000000000000e+00 0.000000000000000000e+00 -1.879999935626983643e-01 1.817600059509277344e+01 0.000000000000000000e+00 -3.759999871253967285e-01 -3.650000095367431641e-01 1.793799972534179688e+01
1.865299987792968750e+01 0.000000000000000000e+00 0.000000000000000000e+00 -1.940000057220458984e-01 1.882399940490722656e+01 0.000000000000000000e+00 -3.889999985694885254e-01 -3.779999911785125732e-01 1.857799911499023438e+01
1.829400062561035156e+01 0.000000000000000000e+00 0.000000000000000000e+00 0.000000000000000000e+00 1.829400062561035156e+01 0.000000000000000000e+00 0.000000000000000000e+00 0.000000000000000000e+00 1.829400062561035156e+01
1.910499954223632812e+01 0.000000000000000000e+00 0.000000000000000000e+00 1.550000011920928955e-01 1.853599929809570312e+01 0.000000000000000000e+00 1.120000034570693970e-01 2.290000021457672119e-01 1.833799934387207031e+01
1.881800079345703125e+01 0.000000000000000000e+00 0.000000000000000000e+00 -2.579999864101409912e-01 1.819899940490722656e+01 0.000000000000000000e+00 1.230000033974647522e-01 3.459999859333038330e-01 1.792300033569335938e+01
1.892900085449218750e+01 0.000000000000000000e+00 0.000000000000000000e+00 0.000000000000000000e+00 1.892900085449218750e+01 0.000000000000000000e+00 0.000000000000000000e+00 0.000000000000000000e+00 1.892900085449218750e+01
1.876300048828125000e+01 0.000000000000000000e+00 0.000000000000000000e+00 3.720000088214874268e-01 1.922100067138671875e+01 0.000000000000000000e+00 -2.329999953508377075e-01 3.799999877810478210e-02 1.851499938964843750e+01
1.903300094604492188e+01 0.000000000000000000e+00 0.000000000000000000e+00 -2.610000073909759521e-01 1.840699958801269531e+01 0.000000000000000000e+00 1.239999979734420776e-01 3.499999940395355225e-01 1.812800025939941406e+01
1.897699928283691406e+01 0.000000000000000000e+00 0.000000000000000000e+00 3.759999871253967285e-01 1.944099998474121094e+01 0.000000000000000000e+00 -2.349999994039535522e-01 3.900000080466270447e-02 1.872699928283691406e+01
1.913299942016601562e+01 0.000000000000000000e+00 0.000000000000000000e+00 1.560000032186508179e-01 1.856299972534179688e+01 0.000000000000000000e+00 1.120000034570693970e-01 2.290000021457672119e-01 1.836499977111816406e+01
1.835499954223632812e+01 0.000000000000000000e+00 0.000000000000000000e+00 3.639999926090240479e-01 1.880400085449218750e+01 0.000000000000000000e+00 -2.280000001192092896e-01 3.700000047683715820e-02 1.811300086975097656e+01
1.882699966430664062e+01 0.000000000000000000e+00 0.000000000000000000e+00 3.729999959468841553e-01 1.928700065612792969e+01 0.000000000000000000e+00 -2.339999973773956299e-01 3.799999877810478210e-02 1.857900047302246094e+01
1.773299980163574219e+01 0.000000000000000000e+00 0.000000000000000000e+00 1.829999983310699463e-01 1.820899963378906250e+01 0.000000000000000000e+00 2.739999890327453613e-01 1.529999971389770508e-01 1.856699943542480469e+01
1.908399963378906250e+01 0.000000000000000000e+00 0.000000000000000000e+00 -1.030000001192092896e-01 1.856699943542480469e+01 0.000000000000000000e+00 5.460000038146972656e-01 5.700000002980232239e-02 1.873200035095214844e+01
1.870999908447265625e+01 0.000000000000000000e+00 0.000000000000000000e+00 -2.269999980926513672e-01 1.800099945068359375e+01 0.000000000000000000e+00 4.079999923706054688e-01 -3.149999976158142090e-01 1.838899993896484375e+01
1.899699974060058594e+01 0.000000000000000000e+00 0.000000000000000000e+00 -1.979999989271163940e-01 1.917099952697753906e+01 0.000000000000000000e+00 -3.959999978542327881e-01 -3.849999904632568359e-01 1.892000007629394531e+01
1.854000091552734375e+01 0.000000000000000000e+00 0.000000000000000000e+00 5.220000147819519043e-01 1.801799964904785156e+01 0.000000000000000000e+00 2.370000034570693970e-01 -9.700000286102294922e-02 1.807099914550781250e+01
1.820400047302246094e+01 0.000000000000000000e+00 0.000000000000000000e+00 4.059999883174896240e-01 1.903800010681152344e+01 0.000000000000000000e+00 3.600000143051147461e-01 1.300000026822090149e-02 1.890800094604492188e+01
1.905299949645996094e+01 0.000000000000000000e+00 0.000000000000000000e+00 5.360000133514404297e-01 1.851600074768066406e+01 0.000000000000000000e+00 2.430000007152557373e-01 -1.000000014901161194e-01 1.857200050354003906e+01
1.882099914550781250e+01 0.000000000000000000e+00 0.000000000000000000e+00 3.729999959468841553e-01 1.928199958801269531e+01 0.000000000000000000e+00 -2.329999953508377075e-01 3.799999877810478210e-02 1.857299995422363281e+01
1.870700073242187500e+01 0.000000000000000000e+00 0.000000000000000000e+00 3.709999918937683105e-01 1.916500091552734375e+01 0.000000000000000000e+00 -2.319999933242797852e-01 3.799999877810478210e-02 1.846100044250488281e+01
1.883499908447265625e+01 0.000000000000000000e+00 0.000000000000000000e+00 -1.019999980926513672e-01 1.832399940490722656e+01 0.000000000000000000e+00 5.389999747276306152e-01 5.600000172853469849e-02 1.848800086975097656e+01
1.923699951171875000e+01 0.000000000000000000e+00 0.000000000000000000e+00 5.410000085830688477e-01 1.869499969482421875e+01 0.000000000000000000e+00 2.460000067949295044e-01 -1.010000035166740417e-01 1.875099945068359375e+01
1.882399940490722656e+01 0.000000000000000000e+00 0.000000000000000000e+00 -1.019999980926513672e-01 1.831299972534179688e+01 0.000000000000000000e+00 5.389999747276306152e-01 5.600000172853469849e-02 1.847599983215332031e+01
1.908799934387207031e+01 0.000000000000000000e+00 0.000000000000000000e+00 5.370000004768371582e-01 1.855100059509277344e+01 0.000000000000000000e+00 2.440000027418136597e-01 -1.000000014901161194e-01 1.860600090026855469e+01
1.905800056457519531e+01 0.000000000000000000e+00 0.000000000000000000e+00 1.550000011920928955e-01 1.849099922180175781e+01 0.000000000000000000e+00 1.110000014305114746e-01 2.280000001192092896e-01 1.829299926757812500e+01
1.880999946594238281e+01 0.000000000000000000e+00 0.000000000000000000e+00 1.529999971389770508e-01 1.825000000000000000e+01 0.000000000000000000e+00 1.099999994039535522e-01 2.249999940395355225e-01 1.805500030517578125e+01
1.861700057983398438e+01 0.000000000000000000e+00 0.000000000000000000e+00 -2.259999960660934448e-01 1.791099929809570312e+01 0.000000000000000000e+00 4.059999883174896240e-01 -3.140000104904174805e-01 1.829700088500976562e+01
1.986700057983398438e+01 0.000000000000000000e+00 0.000000000000000000e+00 -2.409999966621398926e-01 1.911400032043457031e+01 0.000000000000000000e+00 4.339999854564666748e-01 -3.350000083446502686e-01 1.952599906921386719e+01
1.900699996948242188e+01 0.000000000000000000e+00 0.000000000000000000e+00 -2.599999904632568359e-01 1.838100051879882812e+01 0.000000000000000000e+00 1.239999979734420776e-01 3.499999940395355225e-01 1.810300064086914062e+01
1.803800010681152344e+01 0.000000000000000000e+00 0.000000000000000000e+00 4.020000100135803223e-01 1.886499977111816406e+01 0.000000000000000000e+00 3.569999933242797852e-01 1.300000026822090149e-02 1.873600006103515625e+01
1.809000015258789062e+01 0.000000000000000000e+00 0.000000000000000000e+00 -3.659999966621398926e-01 1.868199920654296875e+01 0.000000000000000000e+00 -5.000000074505805969e-02 -8.200000226497650146e-02 1.830900001525878906e+01
1.804000091552734375e+01 0.000000000000000000e+00 0.000000000000000000e+00 3.580000102519989014e-01 1.848100090026855469e+01 0.000000000000000000e+00 -2.240000069141387939e-01 3.700000047683715820e-02 1.780299949645996094e+01
1.808200073242187500e+01 0.000000000000000000e+00 0.000000000000000000e+00 -1.879999935626983643e-01 1.824799919128417969e+01 0.000000000000000000e+00 -3.770000040531158447e-01 -3.670000135898590088e-01 1.800900077819824219e+01
1.940999984741210938e+01 0.000000000000000000e+00 0.000000000000000000e+00 -2.660000026226043701e-01 1.877099990844726562e+01 0.000000000000000000e+00 1.270000040531158447e-01 3.569999933242797852e-01 1.848699951171875000e+01
1.874200057983398438e+01 0.000000000000000000e+00 0.000000000000000000e+00 -1.949999928474426270e-01 1.891399955749511719e+01 0.000000000000000000e+00 -3.910000026226043701e-01 -3.799999952316284180e-01 1.866600036621093750e+01
1.806100082397460938e+01 0.000000000000000000e+00 0.000000000000000000e+00 1.870000064373016357e-01 1.854599952697753906e+01 0.000000000000000000e+00 2.790000140666961670e-01 1.560000032186508179e-01 1.890999984741210938e+01
1.888199996948242188e+01 0.000000000000000000e+00 0.000000000000000000e+00 1.539999991655349731e-01 1.831999969482421875e+01 0.000000000000000000e+00 1.099999994039535522e-01 2.259999960660934448e-01 1.812400054931640625e+01
1.907200050354003906e+01 0.000000000000000000e+00 0.000000000000000000e+00 5.370000004768371582e-01 1.853499984741210938e+01 0.000000000000000000e+00 2.440000027418136597e-01 -1.000000014901161194e-01 1.859099960327148438e+01
1.823399925231933594e+01 0.000000000000000000e+00 0.000000000000000000e+00 1.879999935626983643e-01 1.872299957275390625e+01 0.000000000000000000e+00 2.820000052452087402e-01 1.570000052452087402e-01 1.909099960327148438e+01
1.872999954223632812e+01 0.000000000000000000e+00 0.000000000000000000e+00 -1.949999928474426270e-01 1.890200042724609375e+01 0.000000000000000000e+00 -3.910000026226043701e-01 -3.799999952316284180e-01 1.865500068664550781e+01
1.805200004577636719e+01 0.000000000000000000e+00 0.000000000000000000e+00 3.580000102519989014e-01 1.849399948120117188e+01 0.000000000000000000e+00 -2.240000069141387939e-01 3.700000047683715820e-02 1.781500053405761719e+01
1.918099975585937500e+01 0.000000000000000000e+00 0.000000000000000000e+00 -2.630000114440917969e-01 1.854999923706054688e+01 0.000000000000000000e+00 1.250000000000000000e-01 3.529999852180480957e-01 1.826899909973144531e+01
1.930100059509277344e+01 0.000000000000000000e+00 0.000000000000000000e+00 -1.040000021457672119e-01 1.877799987792968750e+01 0.000000000000000000e+00 5.529999732971191406e-01 5.700000002980232239e-02 1.894499969482421875e+01
1.912199974060058594e+01 0.000000000000000000e+00 0.000000000000000000e+00 1.560000032186508179e-01 1.855299949645996094e+01 0.000000000000000000e+00 1.120000034570693970e-01 2.290000021457672119e-01 1.835499954223632812e+01
1.839999961853027344e+01 0.000000000000000000e+00 0.000000000000000000e+00 -3.720000088214874268e-01 1.900200080871582031e+01 0.000000000000000000e+00 -5.099999904632568359e-02 -8.399999886751174927e-02 1.862299919128417969e+01
1.915999984741210938e+01 0.000000000000000000e+00 0.000000000000000000e+00 5.389999747276306152e-01 1.862100028991699219e+01 0.000000000000000000e+00 2.450000047683715820e-01 -1.010000035166740417e-01 1.867600059509277344e+01
1.917700004577636719e+01 0.000000000000000000e+00 0.000000000000000000e+00 -1.040000021457672119e-01 1.865600013732910156e+01 0.000000000000000000e+00 5.490000247955322266e-01 5.700000002980232239e-02 1.882299995422363281e+01
1.881399917602539062e+01 0.000000000000000000e+00 0.000000000000000000e+00 5.299999713897705078e-01 1.828400039672851562e+01 0.000000000000000000e+00 2.399999946355819702e-01 -9.899999946355819702e-02 1.833900070190429688e+01
1.915399932861328125e+01 0.000000000000000000e+00 0.000000000000000000e+00 -1.040000021457672119e-01 1.863400077819824219e+01 0.000000000000000000e+00 5.479999780654907227e-01 5.700000002980232239e-02 1.879999923706054688e+01
1.789299964904785156e+01 0.000000000000000000e+00 0.000000000000000000e+00 1.850000023841857910e-01 1.837299919128417969e+01 0.000000000000000000e+00 2.770000100135803223e-01 1.550000011920928955e-01 1.873399925231933594e+01
1.845999908447265625e+01 0.000000000000000000e+00 0.000000000000000000e+00 4.120000004768371582e-01 1.930599975585937500e+01 0.000000000000000000e+00 3.650000095367431641e-01 1.300000026822090149e-02 1.917399978637695312e+01
1.790800094604492188e+01 0.000000000000000000e+00 0.000000000000000000e+00 1.850000023841857910e-01 1.838899993896484375e+01 0.000000000000000000e+00 2.770000100135803223e-01 1.550000011920928955e-01 1.875000000000000000e+01
1.790900039672851562e+01 0.000000000000000000e+00 0.000000000000000000e+00 1.850000023841857910e-01 1.838999938964843750e+01 0.000000000000000000e+00 2.770000100135803223e-01 1.550000011920928955e-01 1.875099945068359375e+01
1.890900039672851562e+01 0.000000000000000000e+00 0.000000000000000000e+00 -2.590000033378601074e-01 1.828700065612792969e+01 0.000000000000000000e+00 1.230000033974647522e-01 3.479999899864196777e-01 1.801000022888183594e+01
1.830200004577636719e+01 0.000000000000000000e+00 0.000000000000000000e+00 -3.709999918937683105e-01 1.889999961853027344e+01 0.000000000000000000e+00 -5.099999904632568359e-02 -8.299999684095382690e-02 1.852300071716308594e+01
1.912599945068359375e+01 0.000000000000000000e+00 0.000000000000000000e+00 1.560000032186508179e-01 1.855699920654296875e+01 0.000000000000000000e+00 1.120000034570693970e-01 2.290000021457672119e-01 1.835899925231933594e+01
1.823699951171875000e+01 0.000000000000000000e+00 0.000000000000000000e+00 -1.899999976158142090e-01 1.840500068664550781e+01 0.000000000000000000e+00 -3.799999952316284180e-01 -3.700000047683715820e-01 1.816399955749511719e+01
1.786100006103515625e+01 0.000000000000000000e+00 0.000000000000000000e+00 -3.619999885559082031e-01 1.844499969482421875e+01 0.000000000000000000e+00 -4.899999871850013733e-02 -8.100000023841857910e-02 1.807699966430664062e+01
1.905100059509277344e+01 0.000000000000000000e+00 0.000000000000000000e+00 -2.610000073909759521e-01 1.842399978637695312e+01 0.000000000000000000e+00 1.239999979734420776e-01 3.499999940395355225e-01 1.814500045776367188e+01
1.916099929809570312e+01 0.000000000000000000e+00 0.000000000000000000e+00 0.000000000000000000e+00 1.916099929809570312e+01 0.000000000000000000e+00 0.000000000000000000e+00 0.000000000000000000e+00 1.916099929809570312e+01
1.871199989318847656e+01 0.000000000000000000e+00 0.000000000000000000e+00 0.000000000000000000e+00 1.871199989318847656e+01 0.000000000000000000e+00 0.000000000000000000e+00 0.000000000000000000e+00 1.871199989318847656e+01
1.827799987792968750e+01 0.000000000000000000e+00 0.000000000000000000e+00 1.889999955892562866e-01 1.876799964904785156e+01 0.000000000000000000e+00 2.829999923706054688e-01 1.580000072717666626e-01 1.913699913024902344e+01
1.816300010681152344e+01 0.000000000000000000e+00 0.000000000000000000e+00 0.000000000000000000e+00 1.816300010681152344e+01 0.000000000000000000e+00 0.000000000000000000e+00 0.000000000000000000e+00 1.816300010681152344e+01
1.870599937438964844e+01 0.000000000000000000e+00 0.000000000000000000e+00 5.260000228881835938e-01 1.817900085449218750e+01 0.000000000000000000e+00 2.389999926090240479e-01 -9.799999743700027466e-02 1.823399925231933594e+01
1.873600006103515625e+01 0.000000000000000000e+00 0.000000000000000000e+00 0.000000000000000000e+00 1.873600006103515625e+01 0.000000000000000000e+00 0.000000000000000000e+00 0.000000000000000000e+00 1.873600006103515625e+01
1.804800033569335938e+01 0.000000000000000000e+00 0.000000000000000000e+00 3.580000102519989014e-01 1.848999977111816406e+01 0.000000000000000000e+00 -2.240000069141387939e-01 3.700000047683715820e-02 1.781100082397460938e+01
1.747800064086914062e+01 0.000000000000000000e+00 0.000000000000000000e+00 3.899999856948852539e-01 1.827899932861328125e+01 0.000000000000000000e+00 3.459999859333038330e-01 1.200000010430812836e-02 1.815399932861328125e+01
1.811899948120117188e+01 0.000000000000000000e+00 0.000000000000000000e+00 3.589999973773956299e-01 1.856200027465820312e+01 0.000000000000000000e+00 -2.249999940395355225e-01 3.700000047683715820e-02 1.787999916076660156e+01
1.790800094604492188e+01 0.000000000000000000e+00 0.000000000000000000e+00 -3.630000054836273193e-01 1.849399948120117188e+01 0.000000000000000000e+00 -5.000000074505805969e-02 -8.100000023841857910e-02 1.812500000000000000e+01
1.805299949645996094e+01 0.000000000000000000e+00 0.000000000000000000e+00 4.029999971389770508e-01 1.888100051879882812e+01 0.000000000000000000e+00 3.569999933242797852e-01 1.300000026822090149e-02 1.875200080871582031e+01
1.807799911499023438e+01 0.000000000000000000e+00 0.000000000000000000e+00 -3.659999966621398926e-01 1.866900062561035156e+01 0.000000000000000000e+00 -5.000000074505805969e-02 -8.200000226497650146e-02 1.829599952697753906e+01
1.781299972534179688e+01 0.000000000000000000e+00 0.000000000000000000e+00 1.840000003576278687e-01 1.829100036621093750e+01 0.000000000000000000e+00 2.750000059604644775e-01 1.539999991655349731e-01 1.865099906921386719e+01
1.788800048828125000e+01 0.000000000000000000e+00 0.000000000000000000e+00 3.989999890327453613e-01 1.870800018310546875e+01 0.000000000000000000e+00 3.540000021457672119e-01 1.200000010430812836e-02 1.857999992370605469e+01
1.868700027465820312e+01 0.000000000000000000e+00 0.000000000000000000e+00 -2.269999980926513672e-01 1.797800064086914062e+01 0.000000000000000000e+00 4.079999923706054688e-01 -3.149999976158142090e-01 1.836599922180175781e+01
1.772200012207031250e+01 0.000000000000000000e+00 0.000000000000000000e+00 3.950000107288360596e-01 1.853400039672851562e+01 0.000000000000000000e+00 3.510000109672546387e-01 1.200000010430812836e-02 1.840699958801269531e+01
1.826499938964843750e+01 0.000000000000000000e+00 0.000000000000000000e+00 -1.899999976158142090e-01 1.843300056457519531e+01 0.000000000000000000e+00 -3.810000121593475342e-01 -3.709999918937683105e-01 1.819199943542480469e+01
1.833499908447265625e+01 0.000000000000000000e+00 0.000000000000000000e+00 3.639999926090240479e-01 1.878300094604492188e+01 0.000000000000000000e+00 -2.269999980926513672e-01 3.700000047683715820e-02 1.809300041198730469e+01
1.827000045776367188e+01 0.000000000000000000e+00 0.000000000000000000e+00 4.079999923706054688e-01 1.910700035095214844e+01 0.000000000000000000e+00 3.619999885559082031e-01 1.300000026822090149e-02 1.897699928283691406e+01
1.845100021362304688e+01 0.000000000000000000e+00 0.000000000000000000e+00 -1.000000014901161194e-01 1.795000076293945312e+01 0.000000000000000000e+00 5.279999971389770508e-01 5.499999970197677612e-02 1.811000061035156250e+01
1.874399948120117188e+01 0.000000000000000000e+00 0.000000000000000000e+00 3.720000088214874268e-01 1.920299911499023438e+01 0.000000000000000000e+00 -2.329999953508377075e-01 3.799999877810478210e-02 1.849699974060058594e+01
1.782399940490722656e+01 0.000000000000000000e+00 0.000000000000000000e+00 3.980000019073486328e-01 1.864100074768066406e+01 0.000000000000000000e+00 3.529999852180480957e-01 1.200000010430812836e-02 1.851300048828125000e+01
1.938299942016601562e+01 0.000000000000000000e+00 0.000000000000000000e+00 -2.660000026226043701e-01 1.874500083923339844e+01 0.000000000000000000e+00 1.270000040531158447e-01 3.560000061988830566e-01 1.846100044250488281e+01
1.916300010681152344e+01 0.000000000000000000e+00 0.000000000000000000e+00 5.389999747276306152e-01 1.862400054931640625e+01 0.000000000000000000e+00 2.450000047683715820e-01 -1.010000035166740417e-01 1.867900085449218750e+01
1.884399986267089844e+01 0.000000000000000000e+00 0.000000000000000000e+00 5.299999713897705078e-01 1.831299972534179688e+01 0.000000000000000000e+00 2.409999966621398926e-01 -9.899999946355819702e-02 1.836800003051757812e+01
1.796999931335449219e+01 0.000000000000000000e+00 0.000000000000000000e+00 3.560000061988830566e-01 1.840900039672851562e+01 0.000000000000000000e+00 -2.230000048875808716e-01 3.700000047683715820e-02 1.773299980163574219e+01
1.911199951171875000e+01 0.000000000000000000e+00 0.000000000000000000e+00 -1.990000009536743164e-01 1.928800010681152344e+01 0.000000000000000000e+00 -3.989999890327453613e-01 -3.880000114440917969e-01 1.903499984741210938e+01
1.939100074768066406e+01 0.000000000000000000e+00 0.000000000000000000e+00 -2.349999994039535522e-01 1.865600013732910156e+01 0.000000000000000000e+00 4.230000078678131104e-01 -3.269999921321868896e-01 1.905800056457519531e+01
1.880299949645996094e+01 0.000000000000000000e+00 0.000000000000000000e+00 -1.959999948740005493e-01 1.897599983215332031e+01 0.000000000000000000e+00 -3.919999897480010986e-01 -3.810000121593475342e-01 1.872699928283691406e+01
1.912899971008300781e+01 0.000000000000000000e+00 0.000000000000000000e+00 -1.030000001192092896e-01 1.861000061035156250e+01 0.000000000000000000e+00 5.479999780654907227e-01 5.700000002980232239e-02 1.877599906921386719e+01
1.876799964904785156e+01 0.000000000000000000e+00 0.000000000000000000e+00 -2.280000001192092896e-01 1.805599975585937500e+01 0.000000000000000000e+00 4.099999964237213135e-01 -3.160000145435333252e-01 1.844599914550781250e+01
1.848399925231933594e+01 0.000000000000000000e+00 0.000000000000000000e+00 0.000000000000000000e+00 1.848399925231933594e+01 0.000000000000000000e+00 0.000000000000000000e+00 0.000000000000000000e+00 1.848399925231933594e+01
1.927400016784667969e+01 0.000000000000000000e+00 0.000000000000000000e+00 1.570000052452087402e-01 1.870000076293945312e+01 0.000000000000000000e+00 1.129999980330467224e-01 2.310000061988830566e-01 1.850099945068359375e+01
1.826799964904785156e+01 0.000000000000000000e+00 0.000000000000000000e+00 3.619999885559082031e-01 1.871500015258789062e+01 0.000000000000000000e+00 -2.269999980926513672e-01 3.700000047683715820e-02 1.802700042724609375e+01
1.852099990844726562e+01 0.000000000000000000e+00 0.000000000000000000e+00 -1.930000036954879761e-01 1.869199943542480469e+01 0.000000000000000000e+00 -3.860000073909759521e-01 -3.759999871253967285e-01 1.844700050354003906e+01
1.853499984741210938e+01 0.000000000000000000e+00 0.000000000000000000e+00 -3.750000000000000000e-01 1.914200019836425781e+01 0.000000000000000000e+00 -5.099999904632568359e-02 -8.399999886751174927e-02 1.875900077819824219e+01
1.901700019836425781e+01 0.000000000000000000e+00 0.000000000000000000e+00 3.770000040531158447e-01 1.948200035095214844e+01 0.000000000000000000e+00 -2.360000014305114746e-01 3.900000080466270447e-02 1.876600074768066406e+01
1.804599952697753906e+01 0.000000000000000000e+00 0.000000000000000000e+00 -3.650000095367431641e-01 1.863599967956542969e+01 0.000000000000000000e+00 -5.000000074505805969e-02 -8.200000226497650146e-02 1.826399993896484375e+01
1.816099929809570312e+01 0.000000000000000000e+00 0.000000000000000000e+00 -1.889999955892562866e-01 1.832799911499023438e+01 0.000000000000000000e+00 -3.790000081062316895e-01 -3.680000007152557373e-01 1.808799934387207031e+01
1.860799980163574219e+01 0.000000000000000000e+00 0.000000000000000000e+00 -3.770000040531158447e-01 1.921699905395507812e+01 0.000000000000000000e+00 -5.099999904632568359e-02 -8.500000089406967163e-02 1.883300018310546875e+01
1.804700088500976562e+01 0.000000000000000000e+00 0.000000000000000000e+00 -3.650000095367431641e-01 1.863699913024902344e+01 0.000000000000000000e+00 -5.000000074505805969e-02 -8.200000226497650146e-02 1.826499938964843750e+01
1.844499969482421875e+01 0.000000000000000000e+00 0.000000000000000000e+00 5.189999938011169434e-01 1.792600059509277344e+01 0.000000000000000000e+00 2.360000014305114746e-01 -9.700000286102294922e-02 1.797999954223632812e+01
1.827499961853027344e+01 0.000000000000000000e+00 0.000000000000000000e+00 0.000000000000000000e+00 1.827499961853027344e+01 0.000000000000000000e+00 0.000000000000000000e+00 0.000000000000000000e+00 1.827499961853027344e+01
1.931999969482421875e+01 0.000000000000000000e+00 0.000000000000000000e+00 1.570000052452087402e-01 1.874500083923339844e+01 0.000000000000000000e+00 1.129999980330467224e-01 2.319999933242797852e-01 1.854500007629394531e+01
1.825799942016601562e+01 0.000000000000000000e+00 0.000000000000000000e+00 4.070000052452087402e-01 1.909499931335449219e+01 0.000000000000000000e+00 3.610000014305114746e-01 1.300000026822090149e-02 1.896500015258789062e+01
1.767099952697753906e+01 0.000000000000000000e+00 0.000000000000000000e+00 3.939999938011169434e-01 1.848100090026855469e+01 0.000000000000000000e+00 3.499999940395355225e-01 1.200000010430812836e-02 1.835400009155273438e+01
1.839100074768066406e+01 0.000000000000000000e+00 0.000000000000000000e+00 -9.899999946355819702e-02 1.789200019836425781e+01 0.000000000000000000e+00 5.260000228881835938e-01 5.499999970197677612e-02 1.805200004577636719e+01
1.804899978637695312e+01 0.000000000000000000e+00 0.000000000000000000e+00 -3.650000095367431641e-01 1.863899993896484375e+01 0.000000000000000000e+00 -5.000000074505805969e-02 -8.200000226497650146e-02 1.826700019836425781e+01
1.892499923706054688e+01 0.000000000000000000e+00 0.000000000000000000e+00 0.000000000000000000e+00 1.892499923706054688e+01 0.000000000000000000e+00 0.000000000000000000e+00 0.000000000000000000e+00 1.892499923706054688e+01
1.913400077819824219e+01 0.000000000000000000e+00 0.000000000000000000e+00 5.389999747276306152e-01 1.859499931335449219e+01 0.000000000000000000e+00 2.450000047683715820e-01 -1.010000035166740417e-01 1.865099906921386719e+01
1.912299919128417969e+01 0.000000000000000000e+00 0.000000000000000000e+00 -2.619999945163726807e-01 1.849399948120117188e+01 0.000000000000000000e+00 1.250000000000000000e-01 3.519999980926513672e-01 1.821400070190429688e+01
1.914500045776367188e+01 0.000000000000000000e+00 0.000000000000000000e+00 -2.619999945163726807e-01 1.851499938964843750e+01 0.000000000000000000e+00 1.250000000000000000e-01 3.519999980926513672e-01 1.823500061035156250e+01
1.920899963378906250e+01 0.000000000000000000e+00 0.000000000000000000e+00 -1.040000021457672119e-01 1.868799972534179688e+01 0.000000000000000000e+00 5.500000119209289551e-01 5.700000002980232239e-02 1.885499954223632812e+01
1.881999969482421875e+01 0.000000000000000000e+00 0.000000000000000000e+00 -2.579999864101409912e-01 1.820100021362304688e+01 0.000000000000000000e+00 1.230000033974647522e-01 3.459999859333038330e-01 1.792600059509277344e+01
1.825600051879882812e+01 0.000000000000000000e+00 0.000000000000000000e+00 3.619999885559082031e-01 1.870299911499023438e+01 0.000000000000000000e+00 -2.259999960660934448e-01 3.700000047683715820e-02 1.801600074768066406e+01
1.846500015258789062e+01 0.000000000000000000e+00 0.000000000000000000e+00 1.909999996423721313e-01 1.896100044250488281e+01 0.000000000000000000e+00 2.860000133514404297e-01 1.589999943971633911e-01 1.933399963378906250e+01