-6.062598828125000000e+04
-6.062466015625000000e+04
-6.062894921875000000e+04
-6.062660937500000000e+04
-6.062905468750000000e+04
-6.062184375000000000e+04
-6.064117187500000000e+04
-6.065739843750000000e+04
-6.064089843750000000e+04
-6.062235156250000000e+04
-6.063990234375000000e+04
-6.063913281250000000e+04
-6.065783984375000000e+04
-6.061919140625000000e+04
-6.064511328125000000e+04
-6.064225000000000000e+04
-6.065850781250000000e+04
-6.062881250000000000e+04
-6.065442578125000000e+04
-6.062510546875000000e+04
-6.065631250000000000e+04
-6.062512109375000000e+04
-6.062276171875000000e+04
-6.064219921875000000e+04
-6.062575781250000000e+04
-6.063614453125000000e+04
-6.064264062500000000e+04
-6.062412890625000000e+04
-6.065913671875000000e+04
-6.062233984375000000e+04
-6.065341406250000000e+04
-6.061866015625000000e+04
-6.065887500000000000e+04
-6.062553125000000000e+04
-6.062667968750000000e+04
-6.061763281250000000e+04
-6.062401171875000000e+04
-6.063902734375000000e+04
-6.062043750000000000e+04
-6.063978125000000000e+04
-6.063955078125000000e+04
-6.063608203125000000e+04
-6.065422656250000000e+04
-6.065358593750000000e+04
-6.061782031250000000e+04
-6.063603125000000000e+04
-6.064458984375000000e+04
-6.065571484375000000e+04
-6.065825781250000000e+04
-6.065847265625000000e+04
-6.062515625000000000e+04
-6.063476171875000000e+04
-6.062705859375000000e+04
-6.064462109375000000e+04
-6.062977734375000000e+04
-6.063786328125000000e+04
-6.063878906250000000e+04
-6.065976562500000000e+04
-6.063098828125000000e+04
-6.061727343750000000e+04
-6.062438281250000000e+04
-6.064054687500000000e+04
-6.063851562500000000e+04
-6.062451171875000000e+04
-6.062300000000000000e+04
-6.062223828125000000e+04
-6.064265625000000000e+04
-6.061942578125000000e+04
-6.065474218750000000e+04
-6.064196875000000000e+04
-6.064430468750000000e+04
-6.064050781250000000e+04
-6.063823046875000000e+04
-6.065746484375000000e+04
-6.065704296875000000e+04
-6.064034765625000000e+04
-6.062054296875000000e+04
-6.064026953125000000e+04
-6.062458984375000000e+04
-6.065545312500000000e+04
-6.065337890625000000e+04
-6.063592968750000000e+04
-6.065693750000000000e+04
-6.066243359375000000e+04
-6.065720703125000000e+04
-6.065591406250000000e+04
-6.062688281250000000e+04
-6.063989843750000000e+04
-6.065724609375000000e+04
-6.065278906250000000e+04
-6.063620703125000000e+04
-6.065884375000000000e+04
-6.065467187500000000e+04
-6.064536718750000000e+04
-6.062118359375000000e+04
-6.065239453125000000e+04
-6.062213281250000000e+04
-6.065361718750000000e+04
-6.063540234375000000e+04
-6.063696484375000000e+04
-6.065315234375000000e+04
-6.066004296875000000e+04
-6.062004296875000000e+04
-6.061957031250000000e+04
-6.062848828125000000e+04
-6.062544531250000000e+04
-6.065238671875000000e+04
-6.062387890625000000e+04
-6.062543359375000000e+04
-6.064109765625000000e+04
-6.062947656250000000e+04
-6.063593750000000000e+04
-6.062906640625000000e+04
-6.065507812500000000e+04
-6.065841406250000000e+04
-6.062391796875000000e+04
-6.064428125000000000e+04
-6.065908593750000000e+04
-6.065509375000000000e+04
-6.062568750000000000e+04
-6.062707812500000000e+04
-6.066064843750000000e+04
-6.065751953125000000e+04
-6.065521484375000000e+04
-6.062312500000000000e+04
-6.064139843750000000e+04
-6.062874218750000000e+04
-6.062792187500000000e+04
-6.062637890625000000e+04
-6.063730859375000000e+04
-6.064348046875000000e+04
-6.062417187500000000e+04
-6.064018359375000000e+04
-6.062363671875000000e+04
-6.065354687500000000e+04
-6.065984765625000000e+04
-6.062413671875000000e+04
-6.061997265625000000e+04
-6.062362109375000000e+04
-6.062839062500000000e+04
-6.062669531250000000e+04
-6.063983593750000000e+04
-6.062553125000000000e+04
-6.062174609375000000e+04
-6.064632421875000000e+04
-6.064175000000000000e+04
-6.066243750000000000e+04
-6.065667578125000000e+04
-6.064699218750000000e+04
-6.065569140625000000e+04
-6.065527343750000000e+04
-6.065761328125000000e+04
-6.062666406250000000e+04
-6.062432421875000000e+04
-6.063486328125000000e+04
-6.061844531250000000e+04
-6.065901171875000000e+04
-6.065467578125000000e+04
-6.065612500000000000e+04
-6.064213671875000000e+04
-6.062226171875000000e+04
-6.065983203125000000e+04
-6.062258984375000000e+04
-6.065753906250000000e+04
-6.065888671875000000e+04
-6.061907812500000000e+04
-6.064256250000000000e+04
-6.065732031250000000e+04
-6.061722656250000000e+04
-6.062572265625000000e+04
-6.064048437500000000e+04
-6.062203125000000000e+04
-6.063704296875000000e+04
-6.062334375000000000e+04
-6.065742578125000000e+04
-6.062400390625000000e+04
-6.063780468750000000e+04
-6.063533984375000000e+04
-6.065350781250000000e+04
-6.066076953125000000e+04
-6.064097265625000000e+04
-6.062651171875000000e+04
-6.066025000000000000e+04
-6.064306640625000000e+04
-6.065375781250000000e+04
-6.062384765625000000e+04
-6.064129687500000000e+04
-6.064315234375000000e+04
-6.065969531250000000e+04
-6.064289062500000000e+04
-6.065777734375000000e+04
-6.062912890625000000e+04
-6.062148828125000000e+04
-6.064757812500000000e+04
-6.066011328125000000e+04
-6.063881250000000000e+04
-6.063782812500000000e+04
-6.063674609375000000e+04
-6.065478906250000000e+04
-6.066590625000000000e+04
-6.064531250000000000e+04
-6.063961718750000000e+04
-6.062533593750000000e+04
-6.065537109375000000e+04
-6.064212109375000000e+04
-6.064679296875000000e+04
-6.062383203125000000e+04
-6.065794531250000000e+04
-6.062309375000000000e+04
-6.062709375000000000e+04
-6.065730859375000000e+04
-6.063810937500000000e+04
-6.065260937500000000e+04
-6.062624218750000000e+04
-6.062905859375000000e+04
-6.065554296875000000e+04
-6.063845312500000000e+04
-6.064216015625000000e+04
-6.065708984375000000e+04
-6.062481250000000000e+04
-6.064503515625000000e+04
-6.064565625000000000e+04
-6.062351562500000000e+04
-6.062928125000000000e+04
-6.065430859375000000e+04
-6.065321875000000000e+04
-6.062432812500000000e+04
-6.065975781250000000e+04
-6.065728125000000000e+04
-6.062146484375000000e+04
-6.062463671875000000e+04
-6.064473828125000000e+04
-6.064138281250000000e+04
-6.063121875000000000e+04
-6.063310937500000000e+04
-6.062250390625000000e+04
-6.063030468750000000e+04
-6.061582421875000000e+04
-6.062216015625000000e+04
-6.063111328125000000e+04
-6.065621875000000000e+04
-6.065460156250000000e+04
-6.064810156250000000e+04
-6.064499609375000000e+04
-6.064132421875000000e+04
-6.062025781250000000e+04
-6.063434375000000000e+04
-6.064171093750000000e+04
-6.065484765625000000e+04
-6.065614843750000000e+04
-6.062654687500000000e+04
-6.063913281250000000e+04
-6.064695312500000000e+04
-6.062808984375000000e+04
-6.065630078125000000e+04
-6.063799218750000000e+04
-6.065521875000000000e+04
-6.062595312500000000e+04
-6.064186718750000000e+04
-6.065606250000000000e+04
-6.062308984375000000e+04
-6.064328125000000000e+04
-6.065828515625000000e+04
-6.062142187500000000e+04
-6.064115625000000000e+04
-6.063385937500000000e+04
-6.062630468750000000e+04
-6.062259765625000000e+04
-6.066207031250000000e+04
-6.063133203125000000e+04
-6.064442187500000000e+04
-6.062444531250000000e+04
-6.065643750000000000e+04
-6.062615625000000000e+04
-6.064464062500000000e+04
-6.065356640625000000e+04
-6.065494140625000000e+04
-6.061826562500000000e+04
-6.063423828125000000e+04
-6.061948046875000000e+04
-6.063719921875000000e+04
-6.062289843750000000e+04
-6.064003125000000000e+04
-6.066038671875000000e+04
-6.062622656250000000e+04
-6.063777734375000000e+04
-6.064066015625000000e+04
-6.065867187500000000e+04
-6.062340625000000000e+04
-6.064454687500000000e+04
-6.064116796875000000e+04
-6.062405078125000000e+04
-6.061659765625000000e+04
-6.063867578125000000e+04
-6.065894921875000000e+04
-6.064127343750000000e+04
-6.064004296875000000e+04
-6.065284375000000000e+04
-6.065853515625000000e+04
-6.065572265625000000e+04
-6.064243359375000000e+04
-6.062780078125000000e+04
-6.063951562500000000e+04
-6.064509765625000000e+04
-6.062427734375000000e+04
-6.063107421875000000e+04
-6.062011718750000000e+04
-6.062440625000000000e+04
-6.065443750000000000e+04
-6.065151953125000000e+04
-6.064325781250000000e+04
-6.065748437500000000e+04
-6.065639843750000000e+04
-6.064419531250000000e+04
-6.062528125000000000e+04
-6.065567187500000000e+04
-6.062286718750000000e+04
-6.062241015625000000e+04
-6.064598828125000000e+04
-6.063933984375000000e+04
-6.062482421875000000e+04
-6.065124218750000000e+04
-6.062571875000000000e+04
-6.061592968750000000e+04
-6.062548046875000000e+04
-6.065554296875000000e+04
-6.063992968750000000e+04
-6.064596484375000000e+04
-6.065560937500000000e+04
-6.064309765625000000e+04
-6.063772656250000000e+04
-6.063919921875000000e+04
-6.065599218750000000e+04
-6.062713281250000000e+04
-6.064775781250000000e+04
-6.065863671875000000e+04
-6.063743750000000000e+04
-6.062223437500000000e+04
-6.063814843750000000e+04
-6.065189453125000000e+04
-6.062648046875000000e+04
-6.065725000000000000e+04
-6.065861718750000000e+04
-6.062209375000000000e+04
-6.062649218750000000e+04
-6.062985937500000000e+04
-6.062826171875000000e+04
-6.064454296875000000e+04
-6.064560546875000000e+04
-6.062658984375000000e+04
-6.062148437500000000e+04
-6.062657812500000000e+04
-6.062150390625000000e+04
-6.062917578125000000e+04
-6.065715625000000000e+04
-6.066027734375000000e+04
-6.062191015625000000e+04
-6.065861328125000000e+04
-6.062764062500000000e+04
-6.065528125000000000e+04
-6.062894921875000000e+04
-6.065860937500000000e+04
-6.064216406250000000e+04
-6.063048046875000000e+04
-6.064055078125000000e+04
-6.065865625000000000e+04
-6.065867968750000000e+04
-6.065464843750000000e+04
-6.062432031250000000e+04
-6.062466406250000000e+04
-6.064457031250000000e+04
-6.065676953125000000e+04
-6.065903515625000000e+04
-6.063310546875000000e+04
-6.064123046875000000e+04
-6.063045703125000000e+04
-6.061839453125000000e+04
-6.065926171875000000e+04
-6.062679296875000000e+04
-6.063841796875000000e+04
-6.066116406250000000e+04
-6.065748828125000000e+04
-6.065290234375000000e+04
-6.064001953125000000e+04
-6.062096875000000000e+04
-6.065572656250000000e+04
-6.061657812500000000e+04
-6.062584375000000000e+04
-6.061989843750000000e+04
-6.062964453125000000e+04
-6.062946093750000000e+04
-6.061740625000000000e+04
-6.065646093750000000e+04
-6.065992968750000000e+04
-6.066029296875000000e+04
-6.062512890625000000e+04
-6.065592578125000000e+04
-6.062211328125000000e+04
-6.065587500000000000e+04
-6.061940625000000000e+04
-6.062100781250000000e+04
-6.061855468750000000e+04
-6.065539062500000000e+04
-6.062054687500000000e+04
-6.063778906250000000e+04
-6.064533593750000000e+04
-6.062507812500000000e+04
-6.062254296875000000e+04
-6.062392968750000000e+04
-6.064334765625000000e+04
-6.066391796875000000e+04
-6.061925000000000000e+04
-6.063783203125000000e+04
-6.064125781250000000e+04
-6.066767968750000000e+04
-6.064445312500000000e+04
-6.064170703125000000e+04
-6.064148828125000000e+04
-6.065560156250000000e+04
-6.064205468750000000e+04
-6.061949218750000000e+04
-6.064464843750000000e+04
-6.064206250000000000e+04
-6.062323828125000000e+04
-6.065487109375000000e+04
-6.064466796875000000e+04
-6.061779296875000000e+04
-6.065533984375000000e+04
-6.062945703125000000e+04
-6.062657812500000000e+04
-6.062408203125000000e+04
-6.065363671875000000e+04
-6.062533593750000000e+04
-6.065254296875000000e+04
-6.065842187500000000e+04
-6.065746484375000000e+04
-6.065611328125000000e+04
-6.064451953125000000e+04
-6.062805078125000000e+04
-6.062404687500000000e+04
-6.062847656250000000e+04
-6.066554687500000000e+04
-6.062444140625000000e+04
-6.066023828125000000e+04
-6.062494921875000000e+04
-6.065877734375000000e+04
-6.065635937500000000e+04
-6.065960937500000000e+04
-6.062304296875000000e+04
-6.063165625000000000e+04
-6.061985546875000000e+04
-6.062565625000000000e+04
-6.062126562500000000e+04
-6.062140625000000000e+04
-6.064290234375000000e+04
-6.066491406250000000e+04
-6.062812109375000000e+04
-6.064476171875000000e+04
-6.061857421875000000e+04
-6.065666015625000000e+04
-6.061875781250000000e+04
-6.062394921875000000e+04
-6.061966406250000000e+04
-6.062685546875000000e+04
-6.064433203125000000e+04
-6.065103906250000000e+04
-6.063482421875000000e+04
-6.062835156250000000e+04
-6.066297265625000000e+04
-6.062642578125000000e+04
-6.062559375000000000e+04
-6.062819140625000000e+04
-6.063839843750000000e+04
-6.063595312500000000e+04
-6.062341796875000000e+04
-6.064641406250000000e+04
-6.065953906250000000e+04
-6.064673046875000000e+04
-6.063964062500000000e+04
-6.064134765625000000e+04
-6.065541796875000000e+04
-6.063207031250000000e+04
-6.065441406250000000e+04
-6.061789062500000000e+04
-6.065269921875000000e+04
-6.065380468750000000e+04
-6.065701953125000000e+04
-6.062235546875000000e+04
-6.062324609375000000e+04
-6.064106250000000000e+04
-6.064390234375000000e+04
-6.063976953125000000e+04
-6.065942187500000000e+04
-6.064222265625000000e+04
-6.062323046875000000e+04
-6.063123437500000000e+04
-6.062104687500000000e+04
-6.061940625000000000e+04
-6.062297656250000000e+04
-6.065657031250000000e+04
-6.065614843750000000e+04
-6.062629296875000000e+04
-6.064993750000000000e+04
-6.063418359375000000e+04
-6.063915234375000000e+04
-6.062426562500000000e+04
-6.061826171875000000e+04
-6.061884375000000000e+04
-6.062566015625000000e+04
-6.064215625000000000e+04
-6.063608203125000000e+04
-6.063798828125000000e+04
-6.063826562500000000e+04
-6.064671875000000000e+04
-6.065136328125000000e+04
-6.062064453125000000e+04
-6.063833203125000000e+04
-6.064319140625000000e+04
-6.065614062500000000e+04
-6.065951171875000000e+04
-6.062783593750000000e+04
-6.064023828125000000e+04
-6.064663671875000000e+04
-6.061803906250000000e+04
-6.063801171875000000e+04
-6.063976562500000000e+04
-6.063767578125000000e+04
-6.063844531250000000e+04
-6.063956640625000000e+04
-6.065987890625000000e+04
-6.062945312500000000e+04
-6.065767578125000000e+04
-6.062470703125000000e+04
-6.064330468750000000e+04
-6.062646093750000000e+04
-6.064725000000000000e+04
-6.065670703125000000e+04
-6.062807421875000000e+04
-6.066507812500000000e+04
-6.062326562500000000e+04
-6.062049609375000000e+04
-6.065662109375000000e+04
-6.064363671875000000e+04
-6.062954296875000000e+04
-6.065569921875000000e+04
-6.064478906250000000e+04
-6.063004296875000000e+04
-6.065378515625000000e+04
-6.062481640625000000e+04
-6.062662890625000000e+04
-6.062619140625000000e+04
-6.062337500000000000e+04
-6.063864453125000000e+04
-6.064410937500000000e+04
-6.062610546875000000e+04
-6.063743750000000000e+04
-6.063626953125000000e+04
-6.062532812500000000e+04
-6.064893750000000000e+04
-6.065760546875000000e+04
-6.063940234375000000e+04
-6.062562109375000000e+04
-6.063959765625000000e+04
-6.065625390625000000e+04
-6.062208593750000000e+04
-6.065652343750000000e+04
-6.062448046875000000e+04
-6.065345703125000000e+04
-6.062005859375000000e+04
-6.063808984375000000e+04
-6.063433593750000000e+04
-6.062923828125000000e+04
-6.065670312500000000e+04
-6.061891406250000000e+04
-6.064439062500000000e+04
-6.062878125000000000e+04
-6.062747265625000000e+04
-6.062445312500000000e+04
-6.062551953125000000e+04
-6.062248437500000000e+04
-6.062230078125000000e+04
-6.065713671875000000e+04
-6.062363671875000000e+04
-6.065711328125000000e+04
-6.063717578125000000e+04
-6.062806250000000000e+04
-6.062410937500000000e+04
-6.066451562500000000e+04
-6.063628906250000000e+04
-6.062462109375000000e+04
-6.065565625000000000e+04
-6.064392968750000000e+04
-6.066798828125000000e+04
-6.062210546875000000e+04
-6.064185156250000000e+04
-6.062613671875000000e+04
-6.065480468750000000e+04
-6.062400000000000000e+04
-6.062255468750000000e+04
-6.062448046875000000e+04
-6.064048828125000000e+04
-6.062465234375000000e+04
-6.064164453125000000e+04
-6.065913281250000000e+04
-6.061985546875000000e+04
-6.062399609375000000e+04
-6.066051171875000000e+04
-6.062398046875000000e+04
-6.063068359375000000e+04
-6.065191015625000000e+04
-6.064321484375000000e+04
-6.065760937500000000e+04
-6.063247265625000000e+04
-6.062902343750000000e+04
-6.065678515625000000e+04
-6.064351171875000000e+04
-6.064432421875000000e+04
-6.062808984375000000e+04
-6.066017968750000000e+04
-6.062582031250000000e+04
-6.062478515625000000e+04
-6.061911718750000000e+04
-6.062690234375000000e+04
-6.064604296875000000e+04
-6.062086718750000000e+04
-6.062053515625000000e+04
-6.062978125000000000e+04
-6.066038671875000000e+04
-6.063686328125000000e+04
-6.062112109375000000e+04
-6.064125390625000000e+04
-6.064143750000000000e+04
-6.062538671875000000e+04
-6.063794921875000000e+04
-6.064964453125000000e+04
-6.063931250000000000e+04
-6.062972656250000000e+04
-6.065049609375000000e+04
-6.063697265625000000e+04
-6.065734765625000000e+04
-6.065766406250000000e+04
-6.062498437500000000e+04
-6.064473828125000000e+04
-6.065094140625000000e+04
-6.064506250000000000e+04
-6.062493750000000000e+04
-6.065476171875000000e+04
-6.062445703125000000e+04
-6.065891796875000000e+04
-6.065334375000000000e+04
-6.064260937500000000e+04
-6.062961718750000000e+04
-6.062391015625000000e+04
-6.062748828125000000e+04
-6.065645703125000000e+04
-6.063680468750000000e+04
-6.064615234375000000e+04
-6.064110937500000000e+04
-6.062691406250000000e+04
-6.063872265625000000e+04
-6.065769531250000000e+04
-6.063750781250000000e+04
-6.062024609375000000e+04
-6.061974609375000000e+04
-6.061852343750000000e+04
-6.064035937500000000e+04
-6.065678515625000000e+04
-6.064326562500000000e+04
-6.064228906250000000e+04
-6.064673046875000000e+04
-6.064148046875000000e+04
-6.065000390625000000e+04
-6.065513281250000000e+04
-6.063834375000000000e+04
-6.061403906250000000e+04
-6.063768750000000000e+04
-6.062135546875000000e+04
-6.065756640625000000e+04
-6.065588671875000000e+04
-6.062355078125000000e+04
-6.066023437500000000e+04
-6.062159765625000000e+04
-6.065872656250000000e+04
-6.062636328125000000e+04
-6.065513671875000000e+04
-6.064393750000000000e+04
-6.065815234375000000e+04
-6.063955468750000000e+04
-6.065782421875000000e+04
-6.066218359375000000e+04
-6.065580468750000000e+04
-6.062688671875000000e+04
-6.062585937500000000e+04
-6.062430859375000000e+04
-6.062233593750000000e+04
-6.062973828125000000e+04
-6.062557031250000000e+04
-6.065568359375000000e+04
-6.062613281250000000e+04
-6.062733203125000000e+04
-6.065183203125000000e+04
-6.064887890625000000e+04
-6.061854296875000000e+04
-6.063871093750000000e+04
-6.064338671875000000e+04
-6.064305468750000000e+04
-6.064382812500000000e+04
-6.064553906250000000e+04
-6.062475781250000000e+04
-6.062067187500000000e+04
-6.062640625000000000e+04
-6.062803906250000000e+04
-6.062725000000000000e+04
-6.065684765625000000e+04
-6.062430078125000000e+04
-6.061957031250000000e+04
-6.062448828125000000e+04
-6.066501171875000000e+04
-6.062089843750000000e+04
-6.063694921875000000e+04
-6.065480859375000000e+04
-6.061698046875000000e+04
-6.064569140625000000e+04
-6.063472656250000000e+04
-6.064007031250000000e+04
-6.065578125000000000e+04
-6.062023828125000000e+04
-6.062314453125000000e+04
-6.061780078125000000e+04
-6.065681640625000000e+04
-6.061829296875000000e+04
-6.063125781250000000e+04
-6.065940625000000000e+04
-6.064160156250000000e+04
-6.064406250000000000e+04
-6.064618359375000000e+04
-6.065521875000000000e+04
-6.062376953125000000e+04
-6.063746875000000000e+04
-6.065725781250000000e+04
-6.064227734375000000e+04
-6.064630468750000000e+04
-6.065500781250000000e+04
-6.067124609375000000e+04
-6.065362890625000000e+04
-6.065596093750000000e+04
-6.062316015625000000e+04
-6.064139062500000000e+04
-6.062897656250000000e+04
-6.061866015625000000e+04
-6.066060546875000000e+04
-6.062532812500000000e+04
-6.063800781250000000e+04
-6.063095312500000000e+04
-6.062384765625000000e+04
-6.062800390625000000e+04
-6.065789062500000000e+04
-6.063413671875000000e+04
-6.065355859375000000e+04
-6.064580859375000000e+04
-6.066040234375000000e+04
-6.063771875000000000e+04
-6.063122265625000000e+04
-6.063907031250000000e+04
-6.063598437500000000e+04
-6.062145703125000000e+04
-6.064139453125000000e+04
-6.065894140625000000e+04
-6.063664062500000000e+04
-6.063773437500000000e+04
-6.064085546875000000e+04
-6.062498437500000000e+04
-6.062151171875000000e+04
-6.062412500000000000e+04
-6.063181640625000000e+04
-6.064450000000000000e+04
-6.067039453125000000e+04
-6.066097656250000000e+04
-6.065716015625000000e+04
-6.062844531250000000e+04
-6.066057031250000000e+04
-6.066070703125000000e+04
-6.064553515625000000e+04
-6.062301562500000000e+04
-6.064148828125000000e+04
-6.065635546875000000e+04
-6.062745312500000000e+04
-6.064196875000000000e+04
-6.062401562500000000e+04
-6.065565625000000000e+04
-6.062031250000000000e+04
-6.064431640625000000e+04
-6.062875390625000000e+04
-6.062294531250000000e+04
-6.062284375000000000e+04
-6.065827343750000000e+04
-6.063853125000000000e+04
-6.063263671875000000e+04
-6.061978125000000000e+04
-6.065960546875000000e+04
-6.065559375000000000e+04
-6.062443750000000000e+04
-6.064202734375000000e+04
-6.062113671875000000e+04
-6.062489062500000000e+04
-6.063226953125000000e+04
-6.064137109375000000e+04
-6.062598828125000000e+04
-6.062642968750000000e+04
-6.065527343750000000e+04
-6.062455859375000000e+04
-6.066018750000000000e+04
-6.062937890625000000e+04
-6.065808984375000000e+04
-6.062271875000000000e+04
-6.065422656250000000e+04
-6.065587500000000000e+04
-6.063983593750000000e+04
-6.062285546875000000e+04
-6.065617968750000000e+04
-6.062033593750000000e+04
-6.063692968750000000e+04
-6.062473046875000000e+04
-6.061850390625000000e+04
-6.062158203125000000e+04
-6.061791406250000000e+04
-6.063603125000000000e+04
-6.063714453125000000e+04
-6.061970312500000000e+04
-6.062675781250000000e+04
-6.064120703125000000e+04
-6.063421093750000000e+04
-6.062674218750000000e+04
-6.065991796875000000e+04
-6.065458593750000000e+04
-6.062850000000000000e+04
-6.062326171875000000e+04
-6.065924609375000000e+04
-6.065808984375000000e+04
-6.065671093750000000e+04
-6.065977734375000000e+04
-6.065716796875000000e+04
-6.064613281250000000e+04
-6.067163671875000000e+04
-6.064536328125000000e+04
-6.065606640625000000e+04
-6.062415234375000000e+04
-6.065951171875000000e+04
-6.062120703125000000e+04
-6.062350390625000000e+04
-6.062325781250000000e+04
-6.064564843750000000e+04
-6.064307421875000000e+04
-6.065894531250000000e+04
-6.064283984375000000e+04
-6.065805859375000000e+04
-6.065872656250000000e+04
-6.065748046875000000e+04
-6.065940234375000000e+04
-6.065711328125000000e+04
-6.063364453125000000e+04
-6.062300390625000000e+04
-6.063887500000000000e+04
-6.062594921875000000e+04
-6.062270703125000000e+04
-6.062030859375000000e+04
-6.062303515625000000e+04
-6.064385156250000000e+04
-6.062238281250000000e+04
-6.063976562500000000e+04
-6.065751562500000000e+04
-6.065559765625000000e+04
-6.064211328125000000e+04
-6.063585937500000000e+04
-6.064266015625000000e+04
-6.065887109375000000e+04
-6.065539453125000000e+04
-6.065728125000000000e+04
-6.064433203125000000e+04
-6.064978125000000000e+04
-6.062705078125000000e+04
-6.065101171875000000e+04
-6.063768750000000000e+04
-6.062925781250000000e+04
-6.062046093750000000e+04
-6.063951171875000000e+04
-6.062098046875000000e+04
-6.063017968750000000e+04
-6.062491015625000000e+04
-6.062575390625000000e+04
-6.065498046875000000e+04
-6.065738281250000000e+04
-6.065497265625000000e+04
-6.062239453125000000e+04
-6.066741015625000000e+04
-6.064226562500000000e+04
-6.065189843750000000e+04
-6.062918750000000000e+04
-6.063458984375000000e+04
-6.062852343750000000e+04
-6.064421093750000000e+04
-6.065857812500000000e+04
-6.065530859375000000e+04
-6.065389453125000000e+04
-6.064213281250000000e+04
-6.062679296875000000e+04
-6.063825390625000000e+04
-6.062143750000000000e+04
-6.061780468750000000e+04
-6.062264453125000000e+04
-6.064157421875000000e+04
-6.062231640625000000e+04
-6.064580468750000000e+04
-6.063979687500000000e+04
-6.062292187500000000e+04
-6.062402734375000000e+04
-6.062819921875000000e+04
-6.064797656250000000e+04
-6.062835546875000000e+04
-6.064180078125000000e+04
-6.062733203125000000e+04
-6.062540625000000000e+04
-6.065907031250000000e+04
-6.065490625000000000e+04
-6.064674218750000000e+04
-6.064876953125000000e+04
-6.064319531250000000e+04
-6.064025781250000000e+04
-6.062570312500000000e+04
-6.062334765625000000e+04
-6.065908593750000000e+04
-6.062096875000000000e+04
-6.063992578125000000e+04
-6.062575390625000000e+04
-6.065143750000000000e+04
-6.064209765625000000e+04
-6.062460937500000000e+04
-6.062260156250000000e+04
-6.062590625000000000e+04
-6.066414453125000000e+04
-6.064483984375000000e+04
-6.065912109375000000e+04
-6.062267578125000000e+04
-6.063035937500000000e+04
-6.063527734375000000e+04
-6.063518359375000000e+04
-6.063286718750000000e+04
-6.063948828125000000e+04
-6.061966015625000000e+04
-6.066930078125000000e+04
-6.063840234375000000e+04
-6.063946484375000000e+04
-6.064479296875000000e+04
-6.062561328125000000e+04
-6.062804296875000000e+04
-6.061907421875000000e+04
-6.062766796875000000e+04
-6.062560156250000000e+04
-6.062758203125000000e+04
-6.062640625000000000e+04
-6.064031250000000000e+04
-6.065140625000000000e+04
-6.065543359375000000e+04
-6.065405078125000000e+04
-6.064267578125000000e+04
-6.065968750000000000e+04
-6.065536328125000000e+04
-6.062315234375000000e+04
-6.063823828125000000e+04
-6.066089453125000000e+04
-6.063018359375000000e+04
-6.065640625000000000e+04
-6.063969531250000000e+04
-6.064311718750000000e+04
-6.062381250000000000e+04
-6.062621875000000000e+04
-6.062287500000000000e+04
-6.061779687500000000e+04
-6.063631640625000000e+04
-6.066824609375000000e+04
-6.065091796875000000e+04
-6.061865625000000000e+04
-6.065860937500000000e+04
-6.062488671875000000e+04
-6.062557421875000000e+04
-6.062184765625000000e+04
-6.064475000000000000e+04
-6.062802343750000000e+04
-6.063835546875000000e+04
-6.065708203125000000e+04
-6.063956250000000000e+04
-6.065256250000000000e+04
-6.064046093750000000e+04
-6.065858203125000000e+04
-6.062630078125000000e+04
-6.064436328125000000e+04
-6.064237500000000000e+04
-6.064219531250000000e+04
-6.065041796875000000e+04
-6.064201562500000000e+04
-6.066353515625000000e+04
-6.063010937500000000e+04
-6.065226953125000000e+04
-6.063543750000000000e+04
-6.063146484375000000e+04
-6.062175390625000000e+04
-6.062710937500000000e+04
-6.064262890625000000e+04
-6.065646484375000000e+04
-6.062304687500000000e+04
-6.063958984375000000e+04
-6.065520312500000000e+04
-6.063881250000000000e+04
-6.065683203125000000e+04
-6.065532812500000000e+04
-6.062322265625000000e+04
-6.064199609375000000e+04
-6.064653906250000000e+04
-6.062522265625000000e+04
-6.062918750000000000e+04
-6.063827343750000000e+04
-6.062660546875000000e+04
-6.062155468750000000e+04
-6.062873828125000000e+04
-6.062373437500000000e+04
-6.065576171875000000e+04
-6.062820312500000000e+04
-6.064489062500000000e+04
-6.065776171875000000e+04
-6.064270703125000000e+04
-6.064027343750000000e+04
-6.065595703125000000e+04
-6.063590234375000000e+04
-6.061994531250000000e+04
-6.064394531250000000e+04
-6.063319140625000000e+04
-6.064101953125000000e+04
-6.062642968750000000e+04
-6.062274218750000000e+04
-6.064349609375000000e+04
-6.062933984375000000e+04
-6.065347656250000000e+04
-6.062623437500000000e+04
-6.064021875000000000e+04
-6.065282421875000000e+04
-6.061913281250000000e+04
-6.065618359375000000e+04
-6.062716015625000000e+04
-6.063354687500000000e+04
-6.061989453125000000e+04
-6.066053906250000000e+04
-6.062079296875000000e+04
-6.064549218750000000e+04
-6.064125781250000000e+04
-6.062499609375000000e+04
-6.065903125000000000e+04
-6.063331250000000000e+04
-6.065759765625000000e+04
-6.064519140625000000e+04
-6.062225390625000000e+04
-6.063954687500000000e+04
-6.062422656250000000e+04
-6.065613671875000000e+04
-6.065474609375000000e+04
-6.062582421875000000e+04
-6.064387500000000000e+04
-6.062716796875000000e+04
-6.063840234375000000e+04
-6.062162109375000000e+04
-6.062198046875000000e+04
-6.065816406250000000e+04
-6.062809765625000000e+04
-6.062207812500000000e+04
-6.064391796875000000e+04
-6.062426562500000000e+04
-6.065744531250000000e+04
-6.066106250000000000e+04
-6.064593750000000000e+04
-6.063830859375000000e+04
-6.064833203125000000e+04
-6.062292578125000000e+04
-6.066346875000000000e+04
-6.061951953125000000e+04
-6.063970703125000000e+04
-6.065831250000000000e+04
-6.064514062500000000e+04
-6.062560546875000000e+04
-6.062387890625000000e+04
-6.062132421875000000e+04
-6.062152734375000000e+04
-6.062358984375000000e+04
-6.064210156250000000e+04
-6.064523437500000000e+04
-6.064148046875000000e+04
-6.063462109375000000e+04
-6.062923437500000000e+04
-6.062605078125000000e+04
-6.062482421875000000e+04
-6.062551171875000000e+04
-6.064018750000000000e+04
-6.064503125000000000e+04
-6.065627343750000000e+04
-6.063989843750000000e+04
-6.065739062500000000e+04
-6.066257421875000000e+04
-6.063078515625000000e+04
-6.064436328125000000e+04
-6.064522656250000000e+04
-6.063900390625000000e+04
-6.063857421875000000e+04
-6.064242968750000000e+04
-6.065593750000000000e+04
-6.065760156250000000e+04
-6.065621875000000000e+04
-6.065312890625000000e+04
-6.062290234375000000e+04
-6.062231250000000000e+04
-6.062425390625000000e+04
-6.065651562500000000e+04
-6.064646875000000000e+04
-6.062356250000000000e+04
-6.065570312500000000e+04
-6.066053515625000000e+04
-6.065653125000000000e+04
-6.062695703125000000e+04
-6.065436328125000000e+04
-6.062167968750000000e+04
-6.062437109375000000e+04
-6.061458203125000000e+04
-6.065216796875000000e+04
-6.062636718750000000e+04
-6.065481250000000000e+04
-6.062619921875000000e+04
-6.064251171875000000e+04
-6.062246875000000000e+04
-6.066349609375000000e+04
-6.064218750000000000e+04
-6.064112890625000000e+04
-6.062374218750000000e+04
-6.062883203125000000e+04
-6.066015625000000000e+04
-6.061808593750000000e+04
-6.066435156250000000e+04
-6.064065234375000000e+04
-6.063991015625000000e+04
-6.066032812500000000e+04
-6.061781640625000000e+04
-6.065967187500000000e+04
-6.064335156250000000e+04
-6.064078906250000000e+04
-6.062509375000000000e+04
-6.062327343750000000e+04
-6.065619140625000000e+04