-1.221749591827392578e+01 3.381826877593994141e+00 -9.402403831481933594e+00 3.381826877593994141e+00 -2.158856391906738281e+01 8.983281135559082031e+00 -9.402403831481933594e+00 8.983281135559082031e+00 1.636323356628417969e+01
-1.468615913391113281e+01 -3.925892353057861328e+00 2.168781757354736328e+00 -3.925892353057861328e+00 -4.562395095825195312e+01 1.270330524444580078e+01 2.168781757354736328e+00 1.270330524444580078e+01 -3.269600296020507812e+01
3.392956018447875977e+00 -3.986385822296142578e+00 4.148432731628417969e+00 -3.986385822296142578e+00 -2.921121025085449219e+01 -1.875868225097656250e+01 4.148432731628417969e+00 -1.875868225097656250e+01 -3.141486740112304688e+01
-1.952435493469238281e+01 -4.489710628986358643e-01 8.022537231445312500e+00 -4.489710628986358643e-01 -4.681072235107421875e+01 1.818733406066894531e+01 8.022537231445312500e+00 1.818733406066894531e+01 -3.779509353637695312e+01
-1.751542091369628906e+00 -1.779545068740844727e+00 4.884589195251464844e+00 -1.779545068740844727e+00 -1.439776515960693359e+01 5.352245330810546875e+00 4.884589195251464844e+00 5.352245330810546875e+00 3.009828090667724609e+00
-7.469718456268310547e+00 -4.735810279846191406e+00 -3.160531997680664062e+00 -4.735810279846191406e+00 -2.165390586853027344e+01 -1.023073387145996094e+01 -3.160531997680664062e+00 -1.023073387145996094e+01 -3.632835388183593750e+01
-8.355095863342285156e+00 1.004333019256591797e+01 -9.765378952026367188e+00 1.004333019256591797e+01 -2.257638931274414062e+00 -3.630868494510650635e-01 -9.765378952026367188e+00 -3.630868494510650635e-01 -1.127629280090332031e+01
-5.611060261726379395e-01 -1.012143421173095703e+01 -2.040440940856933594e+01 -1.012143421173095703e+01 -9.335917472839355469e+00 -5.833208560943603516e+00 -2.040440940856933594e+01 -5.833208560943603516e+00 1.374837160110473633e+00
-1.920587539672851562e+01 1.131440830230712891e+01 -1.466773319244384766e+01 1.131440830230712891e+01 -2.530820274353027344e+01 -7.189046382904052734e+00 -1.466773319244384766e+01 -7.189046382904052734e+00 -8.241097450256347656e+00
-2.548221206665039062e+01 1.262853336334228516e+01 -1.516578483581542969e+01 1.262853336334228516e+01 -3.084940719604492188e+01 1.663373184204101562e+01 -1.516578483581542969e+01 1.663373184204101562e+01 -4.614397048950195312e+01
1.819432830810546875e+01 1.260124969482421875e+01 5.713505268096923828e+00 1.260124969482421875e+01 2.079469871520996094e+01 1.274847984313964844e+01 5.713505268096923828e+00 1.274847984313964844e+01 -4.315692901611328125e+00
-3.073197364807128906e+01 -1.512385082244873047e+01 1.734551072120666504e+00 -1.512385082244873047e+01 -2.309204101562500000e+01 -1.464659720659255981e-01 1.734551072120666504e+00 -1.464659720659255981e-01 -1.558220291137695312e+01
3.910128784179687500e+01 1.228638362884521484e+01 3.304526567459106445e+00 1.228638362884521484e+01 2.172156143188476562e+01 -9.338601827621459961e-01 3.304526567459106445e+00 -9.338601827621459961e-01 4.739693403244018555e-01
-1.439980983734130859e+01 -2.744262695312500000e+00 4.906800270080566406e+00 -2.744262695312500000e+00 -3.402616739273071289e+00 -1.994231986999511719e+01 4.906800270080566406e+00 -1.994231986999511719e+01 -2.183929061889648438e+01
-2.913169622421264648e+00 8.027096748352050781e+00 4.665655612945556641e+00 8.027096748352050781e+00 -2.721481132507324219e+01 -1.179333114624023438e+01 4.665655612945556641e+00 -1.179333114624023438e+01 -4.018600845336914062e+01
1.997252082824707031e+01 -3.013738691806793213e-01 -2.137592315673828125e+00 -3.013738691806793213e-01 9.029958724975585938e+00 -7.129563331604003906e+00 -2.137592315673828125e+00 -7.129563331604003906e+00 -3.055115938186645508e+00
-1.978196859359741211e+00 1.156363677978515625e+01 -1.007045364379882812e+01 1.156363677978515625e+01 2.535707092285156250e+01 1.062025165557861328e+01 -1.007045364379882812e+01 1.062025165557861328e+01 -1.274942874908447266e+01
-1.900158309936523438e+01 -1.372765827178955078e+01 -1.142402935028076172e+01 -1.372765827178955078e+01 -2.130695343017578125e+01 7.445298671722412109e+00 -1.142402935028076172e+01 7.445298671722412109e+00 -1.393970203399658203e+01
-8.276898384094238281e+00 5.022456169128417969e+00 -3.812680482864379883e+00 5.022456169128417969e+00 -2.230934381484985352e+00 -1.372840881347656250e+01 -3.812680482864379883e+00 -1.372840881347656250e+01 -1.907983207702636719e+01
-1.156752681732177734e+01 -2.851892232894897461e+00 5.529840469360351562e+00 -2.851892232894897461e+00 -6.180342197418212891e+00 1.650903701782226562e+01 5.529840469360351562e+00 1.650903701782226562e+01 1.900383710861206055e+00
-1.000133132934570312e+01 -4.594691753387451172e+00 2.297960758209228516e+00 -4.594691753387451172e+00 2.256123352050781250e+01 1.151128578186035156e+01 2.297960758209228516e+00 1.151128578186035156e+01 -4.316493868827819824e-01
-2.475303077697753906e+01 4.771001338958740234e+00 -5.214940547943115234e+00 4.771001338958740234e+00 -1.898732566833496094e+01 -1.547913265228271484e+01 -5.214940547943115234e+00 -1.547913265228271484e+01 -8.505476951599121094e+00
-1.260668468475341797e+01 1.407218933105468750e+01 2.499901771545410156e+01 1.407218933105468750e+01 2.223959541320800781e+01 -1.705364036560058594e+01 2.499901771545410156e+01 -1.705364036560058594e+01 -1.022283315658569336e+00
-7.640082359313964844e+00 4.685140848159790039e-01 8.091470718383789062e+00 4.685140848159790039e-01 -1.471639442443847656e+01 1.729755103588104248e-01 8.091470718383789062e+00 1.729755103588104248e-01 6.474873542785644531e+00
-2.226076316833496094e+01 -1.465355110168457031e+01 -1.313261318206787109e+01 -1.465355110168457031e+01 -2.559168243408203125e+01 6.002582550048828125e+00 -1.313261318206787109e+01 6.002582550048828125e+00 -1.706072044372558594e+01
-1.490885257720947266e+01 1.969838333129882812e+01 5.414802074432373047e+00 1.969838333129882812e+01 -1.665413284301757812e+01 -1.520146751403808594e+01 5.414802074432373047e+00 -1.520146751403808594e+01 3.147608041763305664e+00
-7.496222972869873047e+00 -1.974179840087890625e+01 -2.455779647827148438e+01 -1.974179840087890625e+01 1.539754676818847656e+01 -7.613150477409362793e-01 -2.455779647827148438e+01 -7.613150477409362793e-01 3.033182907104492188e+01
3.028027534484863281e+01 -1.210894966125488281e+01 7.663910865783691406e+00 -1.210894966125488281e+01 1.980038642883300781e+01 -3.506024122238159180e+00 7.663910865783691406e+00 -3.506024122238159180e+00 -1.628979873657226562e+01
-8.201497077941894531e+00 6.518295288085937500e+00 -2.933555603027343750e+00 6.518295288085937500e+00 -1.223420906066894531e+01 -3.225190401077270508e+00 -2.933555603027343750e+00 -3.225190401077270508e+00 1.649202227592468262e+00
-2.066786766052246094e+01 -1.404156684875488281e+01 -2.802454233169555664e-01 -1.404156684875488281e+01 -1.318234443664550781e+01 -3.678508281707763672e+00 -2.802454233169555664e-01 -3.678508281707763672e+00 1.346933746337890625e+01
5.120218276977539062e+00 -3.359887123107910156e+00 -1.616960525512695312e+00 -3.359887123107910156e+00 -5.989740848541259766e+00 -1.284740543365478516e+01 -1.616960525512695312e+00 -1.284740543365478516e+01 3.463689565658569336e+00
-4.210463714599609375e+01 -1.179970455169677734e+01 -3.020468652248382568e-01 -1.179970455169677734e+01 -1.585791683197021484e+01 -1.095023536682128906e+01 -3.020468652248382568e-01 -1.095023536682128906e+01 -1.445297622680664062e+01
-3.351430511474609375e+01 6.356741905212402344e+00 -7.768543243408203125e+00 6.356741905212402344e+00 -2.343978404998779297e+00 -5.144399642944335938e+00 -7.768543243408203125e+00 -5.144399642944335938e+00 -1.409717202186584473e+00
-2.083778572082519531e+01 -1.202585220336914062e+01 2.864260375499725342e-01 -1.202585220336914062e+01 -1.877552032470703125e+01 -7.653233051300048828e+00 2.864260375499725342e-01 -7.653233051300048828e+00 -3.316303253173828125e+01
1.978621864318847656e+01 3.897187709808349609e+00 -1.689030647277832031e+01 3.897187709808349609e+00 1.280711936950683594e+01 1.967241668701171875e+01 -1.689030647277832031e+01 1.967241668701171875e+01 2.704979705810546875e+01
-1.119231891632080078e+01 5.634887218475341797e+00 3.449258804321289062e+01 5.634887218475341797e+00 -7.553234577178955078e+00 1.250789523124694824e+00 3.449258804321289062e+01 1.250789523124694824e+00 -1.138965320587158203e+01
2.018937349319458008e+00 1.529618167877197266e+01 -2.372154235839843750e+00 1.529618167877197266e+01 8.595145225524902344e+00 -1.868804931640625000e+01 -2.372154235839843750e+00 -1.868804931640625000e+01 1.022826290130615234e+01
-3.746033430099487305e+00 5.920059204101562500e+00 -1.484519290924072266e+01 5.920059204101562500e+00 -1.317907428741455078e+01 1.560561466217041016e+01 -1.484519290924072266e+01 1.560561466217041016e+01 8.915422111749649048e-02
-5.641122055053710938e+01 1.437402248382568359e+01 3.778524398803710938e+00 1.437402248382568359e+01 -1.777429962158203125e+01 -1.471432209014892578e+01 3.778524398803710938e+00 -1.471432209014892578e+01 -4.175812530517578125e+01
-2.765625381469726562e+01 -1.098015499114990234e+01 -9.877135753631591797e-01 -1.098015499114990234e+01 -2.175769042968750000e+01 1.422675967216491699e+00 -9.877135753631591797e-01 1.422675967216491699e+00 -1.895696830749511719e+01
-2.039083290100097656e+01 -1.938257598876953125e+01 -1.028933811187744141e+01 -1.938257598876953125e+01 -1.474027919769287109e+01 5.928799152374267578e+00 -1.028933811187744141e+01 5.928799152374267578e+00 -1.031751155853271484e+01
-7.610970020294189453e+00 4.992830276489257812e+00 2.674185991287231445e+00 4.992830276489257812e+00 -9.856674194335937500e+00 3.988715171813964844e+00 2.674185991287231445e+00 3.988715171813964844e+00 1.917643356323242188e+01
-2.661210775375366211e+00 -3.256780385971069336e+00 2.543396949768066406e+00 -3.256780385971069336e+00 -9.658593177795410156e+00 3.715035676956176758e+00 2.543396949768066406e+00 3.715035676956176758e+00 -1.169665050506591797e+01
-1.643996620178222656e+01 9.064744949340820312e+00 -5.822617053985595703e+00 9.064744949340820312e+00 1.461109352111816406e+01 -1.689830398559570312e+01 -5.822617053985595703e+00 -1.689830398559570312e+01 1.375380992889404297e+01
-4.955424880981445312e+01 -4.598690569400787354e-01 1.112160587310791016e+01 -4.598690569400787354e-01 5.234842777252197266e+00 5.073253631591796875e+00 1.112160587310791016e+01 5.073253631591796875e+00 -3.862426376342773438e+01
-1.354863357543945312e+01 9.809889793395996094e+00 7.070935726165771484e+00 9.809889793395996094e+00 -3.877960205078125000e+00 5.046073913574218750e+00 7.070935726165771484e+00 5.046073913574218750e+00 1.407187080383300781e+01
-3.790081739425659180e+00 -4.634984970092773438e+00 -3.583906888961791992e+00 -4.634984970092773438e+00 -1.389646244049072266e+01 6.435573101043701172e+00 -3.583906888961791992e+00 6.435573101043701172e+00 -1.971036148071289062e+01
-3.068850994110107422e+00 -1.501292437314987183e-01 4.586900711059570312e+00 -1.501292437314987183e-01 -1.974431037902832031e+01 1.840671348571777344e+01 4.586900711059570312e+00 1.840671348571777344e+01 9.157359123229980469e+00
9.013031125068664551e-01 -1.606127023696899414e+00 7.355881690979003906e+00 -1.606127023696899414e+00 -1.454011678695678711e+00 6.196877956390380859e+00 7.355881690979003906e+00 6.196877956390380859e+00 2.707842445373535156e+01
-1.965710067749023438e+01 6.723365306854248047e+00 4.560679197311401367e-01 6.723365306854248047e+00 2.345511436462402344e+01 -1.386752319335937500e+01 4.560679197311401367e-01 -1.386752319335937500e+01 1.332103633880615234e+01
-2.424035263061523438e+01 1.981693744659423828e+00 4.004941940307617188e+00 1.981693744659423828e+00 -2.240403556823730469e+01 -6.309983253479003906e+00 4.004941940307617188e+00 -6.309983253479003906e+00 -2.149673271179199219e+01
-2.929969406127929688e+01 1.410508823394775391e+01 -2.160553169250488281e+01 1.410508823394775391e+01 -2.038191032409667969e+01 -6.599117279052734375e+00 -2.160553169250488281e+01 -6.599117279052734375e+00 -9.818193435668945312e+00
-2.049002838134765625e+01 7.822091102600097656e+00 -8.635269165039062500e+00 7.822091102600097656e+00 -5.544294714927673340e-01 1.168860435485839844e+00 -8.635269165039062500e+00 1.168860435485839844e+00 -1.704905319213867188e+01
-8.741270065307617188e+00 1.055390167236328125e+01 4.911953449249267578e+00 1.055390167236328125e+01 2.079579830169677734e+00 9.651177406311035156e+00 4.911953449249267578e+00 9.651177406311035156e+00 -6.628336429595947266e+00
1.341834545135498047e+01 1.516084957122802734e+01 -3.452182531356811523e+00 1.516084957122802734e+01 -6.548181772232055664e-01 2.528023242950439453e+00 -3.452182531356811523e+00 2.528023242950439453e+00 -1.428360366821289062e+01
-1.876272010803222656e+01 -7.631008148193359375e+00 -3.102951049804687500e-01 -7.631008148193359375e+00 -2.616405487060546875e+01 1.480683708190917969e+01 -3.102951049804687500e-01 1.480683708190917969e+01 -5.845510959625244141e+00
-5.884732437133789062e+01 -9.014102935791015625e+00 -2.884693861007690430e+00 -9.014102935791015625e+00 -4.711251449584960938e+01 1.465010166168212891e+01 -2.884693861007690430e+00 1.465010166168212891e+01 -5.291583061218261719e+00
-6.226203918457031250e+00 -7.772876739501953125e+00 -4.099318981170654297e+00 -7.772876739501953125e+00 -1.310829830169677734e+01 4.878654003143310547e+00 -4.099318981170654297e+00 4.878654003143310547e+00 -4.759818553924560547e+00
-3.255698919296264648e+00 -1.157424259185791016e+01 -2.357595825195312500e+01 -1.157424259185791016e+01 8.167082786560058594e+00 -1.209973692893981934e+00 -2.357595825195312500e+01 -1.209973692893981934e+00 7.057477474212646484e+00
-3.085110282897949219e+01 2.212727785110473633e+00 8.264993667602539062e+00 2.212727785110473633e+00 -4.534001159667968750e+01 1.095904231071472168e+00 8.264993667602539062e+00 1.095904231071472168e+00 -4.094169616699218750e+01
-2.448770904541015625e+01 1.342983818054199219e+01 2.302359771728515625e+01 1.342983818054199219e+01 2.181239843368530273e+00 -9.955726623535156250e+00 2.302359771728515625e+01 -9.955726623535156250e+00 2.882443809509277344e+01
-7.885560512542724609e+00 1.709412956237792969e+01 -1.989959716796875000e+01 1.709412956237792969e+01 -3.115727806091308594e+01 3.022616624832153320e+00 -1.989959716796875000e+01 3.022616624832153320e+00 -2.933779478073120117e+00
1.995822191238403320e-01 -2.222867393493652344e+01 -3.502350568771362305e+00 -2.222867393493652344e+01 -1.168591594696044922e+01 -1.346247291564941406e+01 -3.502350568771362305e+00 -1.346247291564941406e+01 -9.001951217651367188e+00
3.750480651855468750e+00 -8.582613945007324219e+00 -1.374655437469482422e+01 -8.582613945007324219e+00 -2.109485626220703125e+01 -1.959240913391113281e+01 -1.374655437469482422e+01 -1.959240913391113281e+01 -1.314996623992919922e+01
1.727994728088378906e+01 -3.075765073299407959e-01 2.389162302017211914e+00 -3.075765073299407959e-01 3.127769708633422852e+00 1.585513472557067871e+00 2.389162302017211914e+00 1.585513472557067871e+00 3.182400941848754883e+00
3.178239762783050537e-01 1.405670452117919922e+01 -7.039386749267578125e+00 1.405670452117919922e+01 -3.145343208312988281e+01 -4.113400459289550781e+00 -7.039386749267578125e+00 -4.113400459289550781e+00 -5.127934646606445312e+01
2.114462852478027344e+01 1.609955787658691406e+01 1.636745071411132812e+01 1.609955787658691406e+01 -2.796318244934082031e+01 6.285641670227050781e+00 1.636745071411132812e+01 6.285641670227050781e+00 -8.377073287963867188e+00
-7.871834278106689453e+00 -1.529512977600097656e+01 -4.531291961669921875e+00 -1.529512977600097656e+01 -8.634181022644042969e+00 -1.904292941093444824e+00 -4.531291961669921875e+00 -1.904292941093444824e+00 2.166345596313476562e+00
-5.715434551239013672e+00 -1.279865860939025879e+00 -1.141034030914306641e+01 -1.279865860939025879e+00 -3.596493244171142578e+00 4.418472290039062500e+00 -1.141034030914306641e+01 4.418472290039062500e+00 1.827455520629882812e+01
8.685373306274414062e+00 1.154939079284667969e+01 -8.600612640380859375e+00 1.154939079284667969e+01 6.670934200286865234e+00 2.428354978561401367e+00 -8.600612640380859375e+00 2.428354978561401367e+00 -6.769770622253417969e+00
1.176387786865234375e+01 -8.996116638183593750e+00 1.671071052551269531e+01 -8.996116638183593750e+00 1.359219169616699219e+01 -1.617678642272949219e+00 1.671071052551269531e+01 -1.617678642272949219e+00 1.231204795837402344e+01
-6.023986935615539551e-01 4.172161102294921875e+00 2.455148458480834961e+00 4.172161102294921875e+00 -2.781880760192871094e+01 -1.271442294120788574e+00 2.455148458480834961e+00 -1.271442294120788574e+00 -3.189979743957519531e+01
5.709995746612548828e+00 2.360214948654174805e+00 -3.620283126831054688e+00 2.360214948654174805e+00 7.343332767486572266e+00 1.114881277084350586e+00 -3.620283126831054688e+00 1.114881277084350586e+00 -3.440525436401367188e+01
-7.002638339996337891e+00 -6.703255653381347656e+00 1.228149309754371643e-01 -6.703255653381347656e+00 -2.763749694824218750e+01 -1.975241279602050781e+01 1.228149309754371643e-01 -1.975241279602050781e+01 -4.486135005950927734e+00
-1.429185962677001953e+01 3.779866456985473633e+00 -1.469806194305419922e+01 3.779866456985473633e+00 3.054433345794677734e+00 5.906472206115722656e+00 -1.469806194305419922e+01 5.906472206115722656e+00 3.254409313201904297e+00
-1.064502048492431641e+01 1.015546321868896484e+00 9.644674301147460938e+00 1.015546321868896484e+00 -1.217760086059570312e+01 -5.920325756072998047e+00 9.644674301147460938e+00 -5.920325756072998047e+00 -2.597493171691894531e+01
-2.409252166748046875e+01 1.916448020935058594e+01 1.845918273925781250e+01 1.916448020935058594e+01 -2.289040374755859375e+01 -1.490819931030273438e+01 1.845918273925781250e+01 -1.490819931030273438e+01 -6.343683719635009766e+00
-1.915226364135742188e+01 1.326967048645019531e+01 -8.076159477233886719e+00 1.326967048645019531e+01 -1.334080219268798828e+00 -1.077771472930908203e+01 -8.076159477233886719e+00 -1.077771472930908203e+01 -2.382011413574218750e+01
-1.438539505004882812e+01 -1.797600269317626953e+00 1.384225273132324219e+01 -1.797600269317626953e+00 1.609103560447692871e+00 -7.769510746002197266e+00 1.384225273132324219e+01 -7.769510746002197266e+00 -2.682143402099609375e+01
-2.651740610599517822e-01 4.026386260986328125e+00 -2.510700225830078125e+00 4.026386260986328125e+00 6.657637596130371094e+00 7.901530265808105469e+00 -2.510700225830078125e+00 7.901530265808105469e+00 3.828117370605468750e+00
-2.133148384094238281e+01 6.916539192199707031e+00 -1.823906898498535156e+00 6.916539192199707031e+00 1.806477427482604980e+00 -6.534677982330322266e+00 -1.823906898498535156e+00 -6.534677982330322266e+00 -1.780613708496093750e+01
-9.743695259094238281e+00 -7.762066125869750977e-01 1.871328544616699219e+01 -7.762066125869750977e-01 -3.852145385742187500e+01 -1.400601768493652344e+01 1.871328544616699219e+01 -1.400601768493652344e+01 -2.286349868774414062e+01
1.167453670501708984e+01 -9.925700187683105469e+00 -7.708487510681152344e+00 -9.925700187683105469e+00 -3.908793640136718750e+01 9.450366020202636719e+00 -7.708487510681152344e+00 9.450366020202636719e+00 6.816219329833984375e+00
8.760055541992187500e+00 7.218059539794921875e+00 -7.178976535797119141e+00 7.218059539794921875e+00 -9.560523033142089844e+00 -2.450929260253906250e+01 -7.178976535797119141e+00 -2.450929260253906250e+01 -2.289654350280761719e+01
-3.268412017822265625e+01 -1.195102214813232422e+01 -2.338493728637695312e+01 -1.195102214813232422e+01 -2.400289726257324219e+01 1.131552410125732422e+01 -2.338493728637695312e+01 1.131552410125732422e+01 -6.244637012481689453e+00
-6.016518592834472656e+00 1.401027202606201172e+01 -2.093253135681152344e+00 1.401027202606201172e+01 -6.627811431884765625e+00 -1.772706222534179688e+01 -2.093253135681152344e+00 -1.772706222534179688e+01 3.046159505844116211e+00
-2.689791679382324219e+01 1.704556655883789062e+01 1.731797027587890625e+01 1.704556655883789062e+01 -7.488945960998535156e+00 -7.414795398712158203e+00 1.731797027587890625e+01 -7.414795398712158203e+00 -2.909457778930664062e+01
3.776677846908569336e+00 2.551829528808593750e+01 3.939213752746582031e+00 2.551829528808593750e+01 1.440258026123046875e+00 -1.818939590454101562e+01 3.939213752746582031e+00 -1.818939590454101562e+01 2.478071594238281250e+01
-2.153984832763671875e+01 4.852706909179687500e+00 -1.335660076141357422e+01 4.852706909179687500e+00 8.717127799987792969e+00 2.332729578018188477e+00 -1.335660076141357422e+01 2.332729578018188477e+00 2.003218460083007812e+01
-9.162184715270996094e+00 -1.852463364601135254e+00 3.793903827667236328e+00 -1.852463364601135254e+00 -1.395707130432128906e+01 -2.359261274337768555e+00 3.793903827667236328e+00 -2.359261274337768555e+00 2.027639198303222656e+01
1.246382904052734375e+01 1.592034912109375000e+01 6.731794834136962891e+00 1.592034912109375000e+01 1.360828876495361328e+01 1.044376754760742188e+01 6.731794834136962891e+00 1.044376754760742188e+01 6.226297855377197266e+00
-1.198301982879638672e+01 -8.425484657287597656e+00 7.111555099487304688e+00 -8.425484657287597656e+00 5.211374759674072266e+00 -6.683882713317871094e+00 7.111555099487304688e+00 -6.683882713317871094e+00 -5.685212612152099609e-01
-3.812700271606445312e+01 1.194478893280029297e+01 2.738482713699340820e+00 1.194478893280029297e+01 -1.577005958557128906e+01 -1.304710030555725098e+00 2.738482713699340820e+00 -1.304710030555725098e+00 -3.152153968811035156e+01
-3.097407579421997070e+00 6.340765953063964844e+00 1.403752565383911133e+00 6.340765953063964844e+00 1.728036284446716309e+00 7.207439422607421875e+00 1.403752565383911133e+00 7.207439422607421875e+00 2.773330211639404297e+00
-4.214942932128906250e+01 1.864490318298339844e+01 -2.216491508483886719e+01 1.864490318298339844e+01 -9.933632850646972656e+00 -4.050655364990234375e+00 -2.216491508483886719e+01 -4.050655364990234375e+00 -3.916513824462890625e+01
1.403527164459228516e+01 -2.632124722003936768e-01 -1.886941909790039062e+01 -2.632124722003936768e-01 -8.410467147827148438e+00 -8.498883247375488281e+00 -1.886941909790039062e+01 -8.498883247375488281e+00 -2.835586309432983398e+00
-2.146136283874511719e+01 8.395569801330566406e+00 2.618066549301147461e+00 8.395569801330566406e+00 1.456649589538574219e+01 -1.048367881774902344e+01 2.618066549301147461e+00 -1.048367881774902344e+01 -3.726544952392578125e+01
3.321146011352539062e+00 -5.632616519927978516e+00 -6.273522853851318359e+00 -5.632616519927978516e+00 -1.511933135986328125e+01 -9.626864433288574219e+00 -6.273522853851318359e+00 -9.626864433288574219e+00 -1.468545055389404297e+01
-3.786532974243164062e+01 4.891190230846405029e-01 -1.230417823791503906e+01 4.891190230846405029e-01 -9.924845695495605469e+00 1.745418667793273926e+00 -1.230417823791503906e+01 1.745418667793273926e+00 -3.848934555053710938e+01
-1.777228927612304688e+01 -1.324892520904541016e+01 6.973209977149963379e-01 -1.324892520904541016e+01 1.849428558349609375e+01 -2.041678428649902344e+01 6.973209977149963379e-01 -2.041678428649902344e+01 -3.339793205261230469e+00
-1.643069839477539062e+01 1.335952639579772949e+00 9.434433937072753906e+00 1.335952639579772949e+00 -1.654417610168457031e+01 -8.073184013366699219e+00 9.434433937072753906e+00 -8.073184013366699219e+00 -1.380205917358398438e+01
-2.323518562316894531e+01 -5.992130279541015625e+00 -9.138192176818847656e+00 -5.992130279541015625e+00 3.032608509063720703e+00 -1.550890684127807617e+00 -9.138192176818847656e+00 -1.550890684127807617e+00 3.471596908569335938e+01
-3.585095596313476562e+01 2.941827774047851562e+00 -9.369235992431640625e+00 2.941827774047851562e+00 -1.093225193023681641e+01 1.946740865707397461e+00 -9.369235992431640625e+00 1.946740865707397461e+00 -1.208056735992431641e+01
-1.150976848602294922e+01 1.943107223510742188e+01 -1.351564502716064453e+01 1.943107223510742188e+01 1.403359651565551758e+00 -3.382894039154052734e+00 -1.351564502716064453e+01 -3.382894039154052734e+00 -6.995735645294189453e+00
-1.943511199951171875e+01 -2.092178726196289062e+01 2.946882057189941406e+01 -2.092178726196289062e+01 -2.396729469299316406e+01 1.468438434600830078e+01 2.946882057189941406e+01 1.468438434600830078e+01 -3.296041727066040039e+00
-2.239820289611816406e+01 -1.004257678985595703e+01 1.007884788513183594e+01 -1.004257678985595703e+01 -8.407492637634277344e+00 1.821367263793945312e+00 1.007884788513183594e+01 1.821367263793945312e+00 -2.932009124755859375e+01
-3.116069030761718750e+01 2.021151304244995117e+00 2.000482320785522461e+00 2.021151304244995117e+00 8.704122543334960938e+00 2.423322916030883789e+00 2.000482320785522461e+00 2.423322916030883789e+00 -6.543771266937255859e+00
-1.014070510864257812e+01 1.488860726356506348e+00 -5.450557708740234375e+00 1.488860726356506348e+00 -1.736124038696289062e+01 -1.265441322326660156e+01 -5.450557708740234375e+00 -1.265441322326660156e+01 1.223507595062255859e+01
-3.774007797241210938e+01 -1.963025665283203125e+01 2.358021545410156250e+01 -1.963025665283203125e+01 -3.433359527587890625e+01 -4.605198383331298828e+00 2.358021545410156250e+01 -4.605198383331298828e+00 -2.363517761230468750e+01
2.090058898925781250e+01 -5.795602798461914062e+00 -2.242780494689941406e+01 -5.795602798461914062e+00 -2.927672564983367920e-01 1.752046394348144531e+01 -2.242780494689941406e+01 1.752046394348144531e+01 -1.060985469818115234e+01
-7.296446228027343750e+01 5.854565501213073730e-01 2.465954780578613281e+00 5.854565501213073730e-01 -3.051137924194335938e+01 4.608148038387298584e-01 2.465954780578613281e+00 4.608148038387298584e-01 -1.615626525878906250e+01
-2.213065528869628906e+01 -2.714816284179687500e+01 -1.465221786499023438e+01 -2.714816284179687500e+01 -1.444242191314697266e+01 8.003379821777343750e+00 -1.465221786499023438e+01 8.003379821777343750e+00 4.229444265365600586e-01
-5.293437576293945312e+01 -9.688639640808105469e+00 1.455282330513000488e+00 -9.688639640808105469e+00 -1.800955390930175781e+01 4.774936676025390625e+00 1.455282330513000488e+00 4.774936676025390625e+00 -2.933670425415039062e+01
7.137465000152587891e+00 2.734648466110229492e+00 1.308069705963134766e+01 2.734648466110229492e+00 -7.265684127807617188e+00 1.236829566955566406e+01 1.308069705963134766e+01 1.236829566955566406e+01 -1.435399055480957031e+01
1.797395110130310059e+00 1.328952407836914062e+01 2.301651239395141602e+00 1.328952407836914062e+01 2.091376304626464844e+00 1.196638488769531250e+01 2.301651239395141602e+00 1.196638488769531250e+01 2.046629428863525391e+00
-3.212781524658203125e+01 -1.629378128051757812e+01 -5.336680412292480469e-01 -1.629378128051757812e+01 -6.899566650390625000e+00 -5.325323104858398438e+00 -5.336680412292480469e-01 -5.325323104858398438e+00 7.072326660156250000e+00
-5.830687999725341797e+00 1.529974460601806641e+00 -1.344955253601074219e+01 1.529974460601806641e+00 -2.751431846618652344e+01 6.811107635498046875e+00 -1.344955253601074219e+01 6.811107635498046875e+00 1.086709022521972656e+01
-2.861226797103881836e+00 8.136702537536621094e+00 1.003521156311035156e+01 8.136702537536621094e+00 2.311159133911132812e+01 -1.577644824981689453e+01 1.003521156311035156e+01 -1.577644824981689453e+01 7.877825260162353516e+00
-1.695396232604980469e+01 -6.785788059234619141e+00 2.228821039199829102e+00 -6.785788059234619141e+00 -7.433541774749755859e+00 -1.123562240600585938e+01 2.228821039199829102e+00 -1.123562240600585938e+01 -9.279328584671020508e-01
-4.096566390991210938e+01 1.739834666252136230e+00 -2.562523841857910156e+00 1.739834666252136230e+00 -3.632207870483398438e+01 -1.300772190093994141e+01 -2.562523841857910156e+00 -1.300772190093994141e+01 -2.601267623901367188e+01
-2.428206062316894531e+01 1.390657997131347656e+01 5.497768402099609375e+00 1.390657997131347656e+01 -1.238718605041503906e+01 -9.803313255310058594e+00 5.497768402099609375e+00 -9.803313255310058594e+00 4.854525566101074219e+00
-1.966363525390625000e+01 6.052335739135742188e+00 -1.684354066848754883e+00 6.052335739135742188e+00 -5.889567360281944275e-02 2.282536029815673828e+00 -1.684354066848754883e+00 2.282536029815673828e+00 -9.515024185180664062e+00
-2.196299743652343750e+01 -3.401967048645019531e+00 -1.584158992767333984e+01 -3.401967048645019531e+00 -3.146367454528808594e+01 -1.028374099731445312e+01 -1.584158992767333984e+01 -1.028374099731445312e+01 -1.969872093200683594e+01
1.940024852752685547e+00 1.012262916564941406e+01 -1.448087024688720703e+01 1.012262916564941406e+01 -1.706591796875000000e+01 2.458615303039550781e-01 -1.448087024688720703e+01 2.458615303039550781e-01 1.103034305572509766e+01
-7.588162422180175781e+00 7.081665992736816406e+00 -2.292805671691894531e+00 7.081665992736816406e+00 -7.009306335449218750e+01 -7.662222385406494141e+00 -2.292805671691894531e+00 -7.662222385406494141e+00 -3.544732666015625000e+01
-9.115669250488281250e+00 9.009073257446289062e+00 8.032500267028808594e+00 9.009073257446289062e+00 2.888748407363891602e+00 1.356785678863525391e+01 8.032500267028808594e+00 1.356785678863525391e+01 -7.685572624206542969e+00
-1.506870174407958984e+01 -6.527222633361816406e+00 1.531354331970214844e+01 -6.527222633361816406e+00 1.071211719512939453e+01 -6.674090862274169922e+00 1.531354331970214844e+01 -6.674090862274169922e+00 2.130796051025390625e+01
7.547940254211425781e+00 -3.708193778991699219e+00 9.632654190063476562e+00 -3.708193778991699219e+00 9.296048164367675781e+00 -4.005489349365234375e+00 9.632654190063476562e+00 -4.005489349365234375e+00 -1.512430548667907715e+00
-2.430120658874511719e+01 9.970324516296386719e+00 9.323935508728027344e+00 9.970324516296386719e+00 -2.508404731750488281e+01 5.854224205017089844e+00 9.323935508728027344e+00 5.854224205017089844e+00 -4.189958572387695312e+01
-5.282135391235351562e+01 -3.175983190536499023e+00 -1.629168510437011719e+01 -3.175983190536499023e+00 -3.648172616958618164e+00 -3.622273802757263184e-01 -1.629168510437011719e+01 -3.622273802757263184e-01 1.464427113533020020e+00