-6.085375781250000000e+04
-6.084707812500000000e+04
-6.083593750000000000e+04
-6.082903125000000000e+04
-6.082748437500000000e+04
-6.083053125000000000e+04
-6.082969140625000000e+04
-6.082706640625000000e+04
-6.082781640625000000e+04
-6.082894921875000000e+04
-6.083045703125000000e+04
-6.082729296875000000e+04
-6.082744531250000000e+04
-6.082646484375000000e+04
-6.082770703125000000e+04
-6.082915234375000000e+04
-6.082542578125000000e+04
-6.082273437500000000e+04
-6.082259375000000000e+04
-6.082414453125000000e+04
-6.082415234375000000e+04
-6.082271875000000000e+04
-6.081580468750000000e+04
-6.082071484375000000e+04
-6.081665234375000000e+04
-6.082817578125000000e+04
-6.083259765625000000e+04
-6.083028906250000000e+04
-6.082477734375000000e+04
-6.082892187500000000e+04
-6.082968750000000000e+04
-6.082549609375000000e+04
-6.082753125000000000e+04
-6.082992578125000000e+04
-6.082900000000000000e+04
-6.082900000000000000e+04
-6.082916796875000000e+04
-6.083092578125000000e+04
-6.082736328125000000e+04
-6.083086328125000000e+04
-6.083428515625000000e+04
-6.083176953125000000e+04
-6.082988281250000000e+04
-6.083098437500000000e+04
-6.083053906250000000e+04
-6.083205859375000000e+04
-6.083165625000000000e+04
-6.081796875000000000e+04
-6.081819531250000000e+04
-6.081559765625000000e+04
-6.081258203125000000e+04
-6.081567578125000000e+04
-6.081624218750000000e+04
-6.081527734375000000e+04
-6.081782031250000000e+04
-6.081436328125000000e+04
-6.081127734375000000e+04
-6.081116796875000000e+04
-6.081229296875000000e+04
-6.081143750000000000e+04
-6.081542187500000000e+04
-6.081261328125000000e+04
-6.081331250000000000e+04
-6.081603125000000000e+04
-6.081402343750000000e+04
-6.081338281250000000e+04
-6.081121093750000000e+04
-6.081437109375000000e+04
-6.081569140625000000e+04
-6.081227734375000000e+04
-6.083380859375000000e+04
-6.081596875000000000e+04
-6.082085156250000000e+04
-6.081744531250000000e+04
-6.081447656250000000e+04
-6.081823046875000000e+04
-6.081636718750000000e+04
-6.081793359375000000e+04
-6.081573828125000000e+04
-6.081727734375000000e+04
-6.081536718750000000e+04
-6.080848828125000000e+04
-6.081760937500000000e+04
-6.081866406250000000e+04
-6.081394531250000000e+04
-6.081506250000000000e+04
-6.081515234375000000e+04
-6.084590625000000000e+04
-6.083755468750000000e+04
-6.082417578125000000e+04
-6.081123046875000000e+04
-6.080407812500000000e+04
-6.080132421875000000e+04
-6.080276171875000000e+04
-6.079393359375000000e+04
-6.079819921875000000e+04
-6.080292187500000000e+04
-6.080368750000000000e+04
-6.080411328125000000e+04
-6.079990234375000000e+04
-6.080688671875000000e+04
-6.080305468750000000e+04
-6.080225000000000000e+04
-6.079403906250000000e+04
-6.079482812500000000e+04
-6.079693750000000000e+04
-6.078918359375000000e+04
-6.079332031250000000e+04
-6.080056250000000000e+04
-6.079803515625000000e+04
-6.085452734375000000e+04
-6.084633593750000000e+04
-6.080328125000000000e+04
-6.080595312500000000e+04
-6.080758203125000000e+04
-6.080489843750000000e+04
-6.080686718750000000e+04
-6.080632812500000000e+04
-6.079959765625000000e+04
-6.081000000000000000e+04
-6.080683593750000000e+04
-6.080361328125000000e+04
-6.080316406250000000e+04
-6.080219531250000000e+04
-6.080394531250000000e+04
-6.080221875000000000e+04
-6.080683593750000000e+04
-6.079383593750000000e+04
-6.078948046875000000e+04
-6.079452343750000000e+04
-6.079669140625000000e+04
-6.084023828125000000e+04
-6.083055859375000000e+04
-6.082644140625000000e+04
-6.082447265625000000e+04
-6.082642968750000000e+04
-6.082941015625000000e+04
-6.082698828125000000e+04
-6.082414453125000000e+04
-6.082432812500000000e+04
-6.082489062500000000e+04
-6.082412500000000000e+04
-6.082930078125000000e+04
-6.082195312500000000e+04
-6.083026953125000000e+04
-6.086170703125000000e+04
-6.085368359375000000e+04
-6.084692968750000000e+04
-6.084034375000000000e+04
-6.082546875000000000e+04
-6.082886718750000000e+04
-6.082770703125000000e+04
-6.081932421875000000e+04
-6.082882421875000000e+04
-6.083067578125000000e+04
-6.082550390625000000e+04
-6.083087109375000000e+04
-6.083126953125000000e+04
-6.083078125000000000e+04
-6.083079687500000000e+04
-6.083240234375000000e+04
-6.082590234375000000e+04
-6.082276562500000000e+04
-6.082377343750000000e+04
-6.082392968750000000e+04
-6.083153125000000000e+04
-6.082976953125000000e+04
-6.084424218750000000e+04
-6.083244921875000000e+04
-6.082712109375000000e+04
-6.081970703125000000e+04
-6.081900781250000000e+04
-6.081544140625000000e+04
-6.081430078125000000e+04
-6.081140234375000000e+04
-6.080945312500000000e+04
-6.081887890625000000e+04
-6.081757031250000000e+04
-6.081441796875000000e+04
-6.081328906250000000e+04
-6.081357031250000000e+04
-6.081527343750000000e+04
-6.080966015625000000e+04
-6.081558203125000000e+04
-6.084779296875000000e+04
-6.084008203125000000e+04
-6.082888281250000000e+04
-6.081804687500000000e+04
-6.081791015625000000e+04
-6.081981250000000000e+04
-6.082007031250000000e+04
-6.082007031250000000e+04
-6.081567578125000000e+04
-6.081616406250000000e+04
-6.081758203125000000e+04
-6.081868359375000000e+04
-6.081364843750000000e+04
-6.082012109375000000e+04
-6.081824609375000000e+04
-6.082041015625000000e+04
-6.082420703125000000e+04
-6.081926171875000000e+04
-6.081752343750000000e+04
-6.081483203125000000e+04
-6.081384765625000000e+04
-6.081940625000000000e+04
-6.082133984375000000e+04
-6.083541796875000000e+04
-6.082817968750000000e+04
-6.081935937500000000e+04
-6.080082812500000000e+04
-6.079981250000000000e+04
-6.079821484375000000e+04
-6.079887890625000000e+04
-6.079601953125000000e+04
-6.080190234375000000e+04
-6.080021484375000000e+04
-6.079764843750000000e+04
-6.080349218750000000e+04
-6.078967968750000000e+04
-6.079354687500000000e+04
-6.079994140625000000e+04
-6.080169921875000000e+04
-6.078814843750000000e+04
-6.079524609375000000e+04
-6.078767968750000000e+04
-6.078787890625000000e+04
-6.078353125000000000e+04
-6.078846484375000000e+04
-6.078306640625000000e+04
-6.082308593750000000e+04
-6.081910546875000000e+04
-6.080688671875000000e+04
-6.081160546875000000e+04
-6.080669140625000000e+04
-6.080668359375000000e+04
-6.080351171875000000e+04
-6.080470312500000000e+04
-6.080680468750000000e+04
-6.080578515625000000e+04
-6.080086328125000000e+04
-6.080251562500000000e+04
-6.080280078125000000e+04
-6.080921484375000000e+04
-6.080176171875000000e+04
-6.079895312500000000e+04
-6.080342578125000000e+04
-6.080620703125000000e+04
-6.080085156250000000e+04
-6.080596484375000000e+04
-6.079603515625000000e+04
-6.080441406250000000e+04
-6.080265625000000000e+04
-6.080250390625000000e+04
-6.080129296875000000e+04
-6.080075390625000000e+04
-6.079934375000000000e+04
-6.080211328125000000e+04
-6.080769140625000000e+04
-6.080721093750000000e+04
-6.080037890625000000e+04
-6.086220703125000000e+04
-6.085569140625000000e+04
-6.084773828125000000e+04
-6.084190234375000000e+04
-6.083530468750000000e+04
-6.082507812500000000e+04
-6.082238671875000000e+04
-6.082981640625000000e+04
-6.082737500000000000e+04
-6.082721875000000000e+04
-6.082827343750000000e+04
-6.082773828125000000e+04
-6.082103515625000000e+04
-6.082390625000000000e+04
-6.082776562500000000e+04
-6.082335546875000000e+04
-6.082517578125000000e+04
-6.082296484375000000e+04
-6.082466796875000000e+04
-6.083022656250000000e+04
-6.082685156250000000e+04
-6.082805078125000000e+04
-6.089219140625000000e+04
-6.086256640625000000e+04
-6.084893359375000000e+04
-6.083370312500000000e+04
-6.082488671875000000e+04
-6.082508984375000000e+04
-6.083210937500000000e+04
-6.082857031250000000e+04
-6.082635937500000000e+04
-6.083089843750000000e+04
-6.082851171875000000e+04
-6.083068750000000000e+04
-6.082569140625000000e+04
-6.082705859375000000e+04
-6.082778125000000000e+04
-6.082921093750000000e+04
-6.086057812500000000e+04
-6.084110156250000000e+04
-6.083442578125000000e+04
-6.082491796875000000e+04
-6.081431640625000000e+04
-6.081484375000000000e+04
-6.081277343750000000e+04
-6.081298046875000000e+04
-6.081833203125000000e+04
-6.081383593750000000e+04
-6.081951171875000000e+04
-6.081337890625000000e+04
-6.081095312500000000e+04
-6.081000000000000000e+04
-6.081451171875000000e+04
-6.081415234375000000e+04
-6.081936718750000000e+04
-6.081904296875000000e+04
-6.081376171875000000e+04
-6.081389453125000000e+04
-6.082021484375000000e+04
-6.082168750000000000e+04
-6.081676953125000000e+04
-6.081571093750000000e+04
-6.089219140625000000e+04
-6.084439453125000000e+04
-6.082230859375000000e+04
-6.081934375000000000e+04
-6.081802734375000000e+04
-6.082154687500000000e+04
-6.081765234375000000e+04
-6.081539843750000000e+04
-6.081870312500000000e+04
-6.081801562500000000e+04
-6.081982421875000000e+04
-6.081588671875000000e+04
-6.081722265625000000e+04
-6.081836718750000000e+04
-6.081623437500000000e+04
-6.081413671875000000e+04
-6.081953125000000000e+04
-6.081898828125000000e+04
-6.081882421875000000e+04
-6.081567187500000000e+04
-6.082050781250000000e+04
-6.081760156250000000e+04
-6.081659375000000000e+04
-6.081280859375000000e+04
-6.081419140625000000e+04
-6.085839062500000000e+04
-6.084587109375000000e+04
-6.083915234375000000e+04
-6.081311718750000000e+04
-6.080430859375000000e+04
-6.081445703125000000e+04
-6.081660156250000000e+04
-6.080871875000000000e+04
-6.080352343750000000e+04
-6.080580468750000000e+04
-6.080025000000000000e+04
-6.079241406250000000e+04
-6.079689062500000000e+04
-6.079357031250000000e+04
-6.079606640625000000e+04
-6.079241015625000000e+04
-6.078832031250000000e+04
-6.079616796875000000e+04
-6.084815625000000000e+04
-6.082331640625000000e+04
-6.081035937500000000e+04
-6.081361328125000000e+04
-6.080890625000000000e+04
-6.081022656250000000e+04
-6.080335937500000000e+04
-6.080486718750000000e+04
-6.080831640625000000e+04
-6.080910546875000000e+04
-6.080541406250000000e+04
-6.080991015625000000e+04
-6.080585546875000000e+04
-6.080671484375000000e+04
-6.080483984375000000e+04
-6.080584375000000000e+04
-6.080825781250000000e+04
-6.081066406250000000e+04
-6.080452343750000000e+04
-6.080624218750000000e+04
-6.080512109375000000e+04
-6.081174609375000000e+04
-6.080492187500000000e+04
-6.086130859375000000e+04
-6.084722265625000000e+04
-6.083520703125000000e+04
-6.082875781250000000e+04
-6.082608203125000000e+04
-6.082718359375000000e+04
-6.082853906250000000e+04
-6.082957812500000000e+04
-6.083015234375000000e+04
-6.082809375000000000e+04
-6.082570312500000000e+04
-6.082846093750000000e+04
-6.082808593750000000e+04
-6.082706250000000000e+04
-6.082456640625000000e+04
-6.082707031250000000e+04
-6.082503515625000000e+04
-6.083004687500000000e+04
-6.083361328125000000e+04
-6.083462890625000000e+04
-6.082695312500000000e+04
-6.082533203125000000e+04
-6.082254687500000000e+04
-6.082849609375000000e+04
-6.083112890625000000e+04
-6.082310156250000000e+04
-6.082399609375000000e+04
-6.089325390625000000e+04
-6.086288671875000000e+04
-6.084325781250000000e+04
-6.082775000000000000e+04
-6.082934765625000000e+04
-6.083133593750000000e+04
-6.083351562500000000e+04
-6.083307812500000000e+04
-6.083123046875000000e+04
-6.083215234375000000e+04
-6.082788671875000000e+04
-6.083008984375000000e+04
-6.083298046875000000e+04
-6.083247656250000000e+04
-6.083064843750000000e+04
-6.082777343750000000e+04
-6.082822656250000000e+04
-6.082467578125000000e+04
-6.083221875000000000e+04
-6.083174218750000000e+04
-6.082530468750000000e+04
-6.089325390625000000e+04
-6.084467578125000000e+04
-6.083523437500000000e+04
-6.081962890625000000e+04
-6.081398828125000000e+04
-6.081659765625000000e+04
-6.082136718750000000e+04
-6.081630859375000000e+04
-6.081789843750000000e+04
-6.081791015625000000e+04
-6.081407812500000000e+04
-6.081622265625000000e+04
-6.081900781250000000e+04
-6.081162500000000000e+04
-6.081012890625000000e+04
-6.080571093750000000e+04
-6.080547265625000000e+04
-6.081231250000000000e+04
-6.081179687500000000e+04
-6.081084375000000000e+04
-6.081106640625000000e+04
-6.081266406250000000e+04
-6.081366015625000000e+04
-6.081102343750000000e+04
-6.080960546875000000e+04
-6.085921093750000000e+04
-6.084180078125000000e+04
-6.081946875000000000e+04
-6.081718359375000000e+04
-6.081486328125000000e+04
-6.081676562500000000e+04
-6.081862890625000000e+04
-6.081970703125000000e+04
-6.082214453125000000e+04
-6.082106640625000000e+04
-6.081547265625000000e+04
-6.082061718750000000e+04
-6.081557421875000000e+04
-6.081282031250000000e+04
-6.080801562500000000e+04
-6.081132812500000000e+04
-6.080958203125000000e+04
-6.080196484375000000e+04
-6.080443750000000000e+04
-6.080819531250000000e+04
-6.081138671875000000e+04
-6.080578125000000000e+04
-6.081017578125000000e+04
-6.081246093750000000e+04
-6.081420703125000000e+04
-6.081175000000000000e+04
-6.081211718750000000e+04
-6.084539062500000000e+04
-6.082391406250000000e+04
-6.081047656250000000e+04
-6.080676953125000000e+04
-6.081803515625000000e+04
-6.080371093750000000e+04
-6.080300781250000000e+04
-6.080466015625000000e+04
-6.080296875000000000e+04
-6.080192578125000000e+04
-6.080335937500000000e+04
-6.080280078125000000e+04
-6.080142187500000000e+04
-6.079651562500000000e+04
-6.079768750000000000e+04
-6.080478906250000000e+04
-6.079556250000000000e+04
-6.079442187500000000e+04
-6.080152343750000000e+04
-6.085260937500000000e+04
-6.080589062500000000e+04
-6.080255468750000000e+04
-6.080880468750000000e+04
-6.080355078125000000e+04
-6.080937890625000000e+04
-6.080910546875000000e+04
-6.081008593750000000e+04
-6.080572265625000000e+04
-6.080199609375000000e+04
-6.080169140625000000e+04
-6.080637890625000000e+04
-6.080700000000000000e+04
-6.080657421875000000e+04
-6.079746484375000000e+04
-6.079641796875000000e+04
-6.079746875000000000e+04
-6.079878906250000000e+04
-6.079852734375000000e+04
-6.080304687500000000e+04
-6.080230468750000000e+04
-6.079741015625000000e+04
-6.080450000000000000e+04
-6.080291015625000000e+04
-6.079374218750000000e+04
-6.079925390625000000e+04
-6.086017187500000000e+04
-6.084773828125000000e+04
-6.082773437500000000e+04
-6.082446093750000000e+04
-6.083389843750000000e+04
-6.083390234375000000e+04
-6.082987109375000000e+04
-6.083195703125000000e+04
-6.083066015625000000e+04
-6.082937500000000000e+04
-6.083126953125000000e+04
-6.083115625000000000e+04
-6.083008203125000000e+04
-6.082855859375000000e+04
-6.082886718750000000e+04
-6.083040234375000000e+04
-6.083182031250000000e+04
-6.082859765625000000e+04
-6.082912109375000000e+04
-6.082926953125000000e+04
-6.082989453125000000e+04
-6.082801562500000000e+04
-6.082742578125000000e+04
-6.084889843750000000e+04
-6.084330468750000000e+04
-6.083667968750000000e+04
-6.082847265625000000e+04
-6.082582812500000000e+04
-6.082808203125000000e+04
-6.083216015625000000e+04
-6.082967578125000000e+04
-6.083192968750000000e+04
-6.082900000000000000e+04
-6.082965625000000000e+04
-6.082617187500000000e+04
-6.082728125000000000e+04
-6.083054687500000000e+04
-6.082946875000000000e+04
-6.082775000000000000e+04
-6.082610937500000000e+04
-6.082730078125000000e+04
-6.082639843750000000e+04
-6.082580078125000000e+04
-6.082597656250000000e+04
-6.085079687500000000e+04
-6.083288281250000000e+04
-6.082573046875000000e+04
-6.081689453125000000e+04
-6.082150000000000000e+04
-6.081668359375000000e+04
-6.081789062500000000e+04
-6.081756250000000000e+04
-6.081576562500000000e+04
-6.081517578125000000e+04
-6.080945703125000000e+04
-6.081184375000000000e+04
-6.081144531250000000e+04
-6.082039843750000000e+04
-6.081984765625000000e+04
-6.081601562500000000e+04
-6.081591015625000000e+04
-6.081554687500000000e+04
-6.082315234375000000e+04
-6.082082421875000000e+04
-6.081633203125000000e+04
-6.085800390625000000e+04
-6.082945703125000000e+04
-6.080900390625000000e+04
-6.081910937500000000e+04
-6.081880078125000000e+04
-6.081387890625000000e+04
-6.081716015625000000e+04
-6.081677734375000000e+04
-6.081449218750000000e+04
-6.081497656250000000e+04
-6.082034375000000000e+04
-6.081584765625000000e+04
-6.081199218750000000e+04
-6.081350390625000000e+04
-6.081444921875000000e+04
-6.081502343750000000e+04
-6.082237109375000000e+04
-6.082119921875000000e+04
-6.082003515625000000e+04
-6.081584765625000000e+04
-6.085787890625000000e+04
-6.084650390625000000e+04
-6.083637109375000000e+04
-6.080665625000000000e+04
-6.080477343750000000e+04
-6.080990234375000000e+04
-6.080414062500000000e+04
-6.080025781250000000e+04
-6.080592578125000000e+04
-6.080216406250000000e+04
-6.080283984375000000e+04
-6.080551953125000000e+04
-6.080415234375000000e+04
-6.080030859375000000e+04
-6.079237109375000000e+04
-6.079929687500000000e+04
-6.079553125000000000e+04
-6.079979687500000000e+04
-6.080179687500000000e+04
-6.080547656250000000e+04
-6.079795703125000000e+04
-6.079591796875000000e+04
-6.080069921875000000e+04
-6.080180078125000000e+04
-6.079697656250000000e+04
-6.085576171875000000e+04
-6.082666406250000000e+04
-6.081270312500000000e+04
-6.080385156250000000e+04
-6.080182031250000000e+04
-6.080776562500000000e+04
-6.080501562500000000e+04
-6.081253125000000000e+04
-6.080972265625000000e+04
-6.080416015625000000e+04
-6.081068359375000000e+04
-6.081064453125000000e+04
-6.080658203125000000e+04
-6.080806640625000000e+04
-6.081132031250000000e+04
-6.080827343750000000e+04
-6.080617187500000000e+04
-6.080932812500000000e+04
-6.080720703125000000e+04
-6.080718750000000000e+04
-6.081116015625000000e+04
-6.080228906250000000e+04
-6.079773828125000000e+04
-6.079418359375000000e+04
-6.079980078125000000e+04
-6.079780078125000000e+04
-6.079485156250000000e+04
-6.079230468750000000e+04
-6.089226562500000000e+04
-6.085664843750000000e+04
-6.084897656250000000e+04
-6.083541015625000000e+04
-6.082660156250000000e+04
-6.082676562500000000e+04
-6.082625781250000000e+04
-6.083006640625000000e+04
-6.082721484375000000e+04
-6.082563671875000000e+04
-6.083070312500000000e+04
-6.082269921875000000e+04
-6.082452734375000000e+04
-6.082428125000000000e+04
-6.083058203125000000e+04
-6.082738281250000000e+04
-6.082354687500000000e+04
-6.082418750000000000e+04
-6.089226562500000000e+04
-6.085439843750000000e+04
-6.084892968750000000e+04
-6.084312890625000000e+04
-6.083137500000000000e+04
-6.082639843750000000e+04
-6.082711718750000000e+04
-6.082256640625000000e+04
-6.082784375000000000e+04
-6.082326562500000000e+04
-6.082742578125000000e+04
-6.082739062500000000e+04
-6.082781250000000000e+04
-6.082212890625000000e+04
-6.082390625000000000e+04
-6.082533203125000000e+04
-6.082228515625000000e+04
-6.082010937500000000e+04
-6.082696484375000000e+04
-6.082380859375000000e+04
-6.089226562500000000e+04
-6.084942968750000000e+04
-6.083524609375000000e+04
-6.082573437500000000e+04
-6.081804687500000000e+04
-6.082082421875000000e+04
-6.081675000000000000e+04
-6.082571875000000000e+04
-6.082193750000000000e+04
-6.081517968750000000e+04
-6.081402734375000000e+04
-6.081073828125000000e+04
-6.081600390625000000e+04
-6.081716406250000000e+04
-6.081405078125000000e+04
-6.080707421875000000e+04
-6.080932421875000000e+04
-6.081359765625000000e+04
-6.081066406250000000e+04
-6.081042968750000000e+04
-6.081195312500000000e+04
-6.080780078125000000e+04
-6.084814453125000000e+04
-6.084096484375000000e+04
-6.083550390625000000e+04
-6.081604296875000000e+04
-6.082300000000000000e+04
-6.081704296875000000e+04
-6.081760156250000000e+04
-6.081853906250000000e+04
-6.081988671875000000e+04
-6.081723046875000000e+04
-6.082141015625000000e+04
-6.082305859375000000e+04
-6.081727343750000000e+04
-6.081192187500000000e+04
-6.080655078125000000e+04
-6.082007812500000000e+04
-6.081501171875000000e+04
-6.081640625000000000e+04
-6.081471875000000000e+04
-6.081968359375000000e+04
-6.081439062500000000e+04
-6.081271093750000000e+04
-6.081017187500000000e+04
-6.081061718750000000e+04
-6.080603515625000000e+04
-6.089226953125000000e+04
-6.085676562500000000e+04
-6.084637890625000000e+04
-6.084019531250000000e+04
-6.080709765625000000e+04
-6.080732031250000000e+04
-6.080272265625000000e+04
-6.080487500000000000e+04
-6.080036718750000000e+04
-6.080298828125000000e+04
-6.080323046875000000e+04
-6.080253906250000000e+04
-6.080663281250000000e+04
-6.080287109375000000e+04
-6.081014062500000000e+04
-6.080942968750000000e+04
-6.080514843750000000e+04
-6.080770312500000000e+04
-6.080067187500000000e+04
-6.080844140625000000e+04
-6.080031250000000000e+04
-6.079737500000000000e+04
-6.079462890625000000e+04
-6.080020312500000000e+04
-6.080250390625000000e+04
-6.079961718750000000e+04
-6.089226562500000000e+04
-6.084544531250000000e+04
-6.083724609375000000e+04
-6.082049609375000000e+04
-6.080446875000000000e+04
-6.080585156250000000e+04
-6.080557421875000000e+04
-6.080658203125000000e+04
-6.081227734375000000e+04
-6.081020312500000000e+04
-6.080570312500000000e+04
-6.080400390625000000e+04
-6.080603515625000000e+04
-6.080440234375000000e+04
-6.080914453125000000e+04
-6.080285156250000000e+04
-6.079830468750000000e+04
-6.080176171875000000e+04
-6.079691015625000000e+04
-6.079521875000000000e+04
-6.079630078125000000e+04
-6.079265625000000000e+04
-6.079556640625000000e+04
-6.086007812500000000e+04
-6.084112890625000000e+04
-6.083279687500000000e+04
-6.083067968750000000e+04
-6.082716015625000000e+04
-6.082702734375000000e+04
-6.082870312500000000e+04
-6.082798437500000000e+04
-6.082610546875000000e+04
-6.083126171875000000e+04
-6.082610937500000000e+04
-6.082623828125000000e+04
-6.082847265625000000e+04
-6.082427734375000000e+04
-6.082795703125000000e+04
-6.083542578125000000e+04
-6.082735156250000000e+04
-6.082427343750000000e+04
-6.083405078125000000e+04
-6.083298828125000000e+04
-6.082957031250000000e+04
-6.082711718750000000e+04
-6.082784765625000000e+04
-6.082416015625000000e+04
-6.085462890625000000e+04
-6.084660546875000000e+04
-6.083987890625000000e+04
-6.083593750000000000e+04
-6.082948046875000000e+04
-6.082521875000000000e+04
-6.083001953125000000e+04
-6.082453125000000000e+04
-6.082776953125000000e+04
-6.082467968750000000e+04
-6.082886328125000000e+04
-6.082958203125000000e+04
-6.083489843750000000e+04
-6.083183984375000000e+04
-6.082820703125000000e+04
-6.082925000000000000e+04
-6.083021484375000000e+04
-6.082985546875000000e+04
-6.082800781250000000e+04
-6.082916406250000000e+04
-6.084730468750000000e+04
-6.083684765625000000e+04
-6.083280468750000000e+04
-6.080793359375000000e+04
-6.081298437500000000e+04
-6.081684765625000000e+04
-6.081599609375000000e+04
-6.081411328125000000e+04
-6.081375781250000000e+04
-6.081244921875000000e+04
-6.081664843750000000e+04
-6.081222656250000000e+04
-6.081642578125000000e+04
-6.081062500000000000e+04
-6.081535937500000000e+04
-6.081660156250000000e+04
-6.081549218750000000e+04
-6.081301953125000000e+04
-6.081301953125000000e+04
-6.081598437500000000e+04
-6.081956640625000000e+04
-6.081209765625000000e+04
-6.081630859375000000e+04
-6.081328515625000000e+04
-6.081317968750000000e+04
-6.081287890625000000e+04
-6.081087109375000000e+04
-6.081518750000000000e+04
-6.085791796875000000e+04
-6.082961328125000000e+04
-6.081592187500000000e+04
-6.081643359375000000e+04
-6.082379687500000000e+04
-6.081695312500000000e+04
-6.082096875000000000e+04
-6.081764062500000000e+04
-6.081831640625000000e+04
-6.081504296875000000e+04
-6.081881640625000000e+04
-6.081437890625000000e+04
-6.081482031250000000e+04
-6.081332031250000000e+04
-6.082270312500000000e+04
-6.082178515625000000e+04
-6.081657031250000000e+04
-6.081368359375000000e+04
-6.080785156250000000e+04
-6.081630468750000000e+04
-6.081587890625000000e+04
-6.081367187500000000e+04
-6.081809765625000000e+04
-6.085315234375000000e+04
-6.084458984375000000e+04
-6.082591015625000000e+04
-6.082223437500000000e+04
-6.080996875000000000e+04
-6.081110156250000000e+04
-6.081230859375000000e+04
-6.081228515625000000e+04
-6.080831640625000000e+04
-6.080649609375000000e+04
-6.080619531250000000e+04
-6.080363671875000000e+04
-6.080573437500000000e+04
-6.080073828125000000e+04
-6.079958593750000000e+04
-6.080233984375000000e+04
-6.080411718750000000e+04
-6.080247265625000000e+04
-6.079882812500000000e+04
-6.079273046875000000e+04
-6.079557421875000000e+04
-6.080299609375000000e+04
-6.079880078125000000e+04
-6.079690234375000000e+04
-6.079419531250000000e+04
-6.080285546875000000e+04
-6.079432421875000000e+04
-6.079664453125000000e+04
-6.085304296875000000e+04
-6.083592187500000000e+04
-6.081467187500000000e+04
-6.080660937500000000e+04
-6.080933593750000000e+04
-6.080287890625000000e+04
-6.080679687500000000e+04
-6.081300000000000000e+04
-6.081128906250000000e+04
-6.080961718750000000e+04
-6.080470312500000000e+04
-6.080566015625000000e+04
-6.080979687500000000e+04
-6.080111328125000000e+04
-6.080045703125000000e+04
-6.080814453125000000e+04
-6.080104296875000000e+04
-6.079912890625000000e+04
-6.080045703125000000e+04
-6.080624218750000000e+04
-6.080307812500000000e+04
-6.079767578125000000e+04
-6.079764453125000000e+04
-6.079523046875000000e+04
-6.079303906250000000e+04
-6.085891796875000000e+04
-6.085453515625000000e+04
-6.084029687500000000e+04
-6.083320312500000000e+04
-6.082806640625000000e+04
-6.083089062500000000e+04
-6.082836328125000000e+04
-6.082880468750000000e+04
-6.082432421875000000e+04
-6.082901562500000000e+04
-6.082913281250000000e+04
-6.083203906250000000e+04
-6.082984765625000000e+04
-6.082402343750000000e+04
-6.082214453125000000e+04
-6.082660156250000000e+04
-6.082815625000000000e+04
-6.082764062500000000e+04
-6.086002343750000000e+04
-6.085317578125000000e+04
-6.084795312500000000e+04
-6.082780468750000000e+04
-6.083155078125000000e+04
-6.082789843750000000e+04
-6.082949609375000000e+04
-6.083150390625000000e+04
-6.082851171875000000e+04
-6.083070312500000000e+04
-6.083105468750000000e+04
-6.082650000000000000e+04
-6.082848437500000000e+04
-6.082929687500000000e+04
-6.082925781250000000e+04
-6.084766406250000000e+04
-6.081608203125000000e+04
-6.082092968750000000e+04
-6.081307812500000000e+04
-6.081612890625000000e+04
-6.081735546875000000e+04
-6.081238281250000000e+04
-6.081960156250000000e+04
-6.081957812500000000e+04
-6.081482031250000000e+04
-6.081627734375000000e+04
-6.081178515625000000e+04
-6.081380078125000000e+04
-6.081685156250000000e+04
-6.085067968750000000e+04
-6.084244531250000000e+04
-6.083521875000000000e+04
-6.082051953125000000e+04
-6.081555859375000000e+04
-6.081763671875000000e+04
-6.082148046875000000e+04
-6.082389062500000000e+04
-6.081682421875000000e+04
-6.081425390625000000e+04
-6.081678125000000000e+04
-6.081349218750000000e+04
-6.081491406250000000e+04
-6.081939062500000000e+04
-6.082132812500000000e+04
-6.082375781250000000e+04
-6.081426171875000000e+04
-6.081737500000000000e+04
-6.081749609375000000e+04
-6.081854296875000000e+04
-6.081454296875000000e+04
-6.083614843750000000e+04
-6.080539843750000000e+04
-6.080182031250000000e+04
-6.080146093750000000e+04
-6.080425390625000000e+04
-6.080229687500000000e+04
-6.080158593750000000e+04
-6.080178906250000000e+04
-6.079397656250000000e+04
-6.079594921875000000e+04
-6.079075390625000000e+04
-6.079258203125000000e+04
-6.079767968750000000e+04
-6.079942578125000000e+04
-6.079698046875000000e+04
-6.079656250000000000e+04
-6.079458203125000000e+04
-6.079045312500000000e+04
-6.079471875000000000e+04
-6.078887500000000000e+04
-6.084570312500000000e+04
-6.081017968750000000e+04
-6.080570312500000000e+04
-6.080331640625000000e+04
-6.081598828125000000e+04
-6.080992968750000000e+04
-6.080875781250000000e+04
-6.080446093750000000e+04
-6.080912109375000000e+04
-6.080607031250000000e+04
-6.080469921875000000e+04
-6.080283203125000000e+04
-6.079789453125000000e+04
-6.080448437500000000e+04
-6.079895703125000000e+04
-6.079903906250000000e+04
-6.080025000000000000e+04
-6.079553515625000000e+04
-6.080170703125000000e+04
-6.079875781250000000e+04
-6.080107031250000000e+04
-6.080049609375000000e+04
-6.079901562500000000e+04
-6.079604296875000000e+04
-6.079444531250000000e+04
-6.079851562500000000e+04
-6.079428125000000000e+04
-6.084767578125000000e+04
-6.083819531250000000e+04
-6.082701562500000000e+04
-6.083120312500000000e+04
-6.083116796875000000e+04
-6.082779687500000000e+04
-6.082922656250000000e+04
-6.082604296875000000e+04
-6.083114453125000000e+04
-6.082697656250000000e+04
-6.082638281250000000e+04
-6.082127343750000000e+04
-6.082514453125000000e+04
-6.082600781250000000e+04
-6.086147265625000000e+04
-6.084567968750000000e+04
-6.083773046875000000e+04
-6.082692968750000000e+04
-6.083003125000000000e+04
-6.082867578125000000e+04
-6.083062109375000000e+04
-6.082645703125000000e+04
-6.082511718750000000e+04
-6.082225000000000000e+04
-6.082231640625000000e+04
-6.082192187500000000e+04
-6.082519140625000000e+04
-6.082098828125000000e+04
-6.082270312500000000e+04
-6.083032031250000000e+04
-6.082328906250000000e+04
-6.082354296875000000e+04
-6.083193750000000000e+04
-6.081520312500000000e+04
-6.082230078125000000e+04
-6.081392968750000000e+04
-6.081795312500000000e+04
-6.081559765625000000e+04
-6.081803906250000000e+04
-6.082048828125000000e+04
-6.081864843750000000e+04
-6.081979687500000000e+04
-6.081800390625000000e+04
-6.081748437500000000e+04
-6.082034765625000000e+04
-6.081704687500000000e+04
-6.081795703125000000e+04
-6.081381640625000000e+04
-6.081662500000000000e+04
-6.081659375000000000e+04
-6.081494140625000000e+04
-6.081814843750000000e+04
-6.081933593750000000e+04
-6.081509375000000000e+04
-6.081253125000000000e+04
-6.081113281250000000e+04
-6.081100781250000000e+04
-6.081562890625000000e+04
-6.082074218750000000e+04
-6.082042578125000000e+04
-6.081440625000000000e+04
-6.084951171875000000e+04
-6.082958984375000000e+04
-6.081783203125000000e+04
-6.081327734375000000e+04
-6.081624218750000000e+04
-6.081388281250000000e+04
-6.081581250000000000e+04
-6.082110156250000000e+04
-6.082162109375000000e+04
-6.081357031250000000e+04
-6.081387890625000000e+04
-6.081654296875000000e+04
-6.081572265625000000e+04
-6.081632031250000000e+04
-6.081545312500000000e+04
-6.081596875000000000e+04
-6.081543750000000000e+04
-6.081807421875000000e+04
-6.081826171875000000e+04
-6.081358593750000000e+04
-6.081377734375000000e+04
-6.082048046875000000e+04
-6.081905468750000000e+04