-1.496109771728515625e+01 -3.090560197830200195e+00 -4.387377262115478516e+00 -3.090560197830200195e+00 -1.762536239624023438e+01 2.476169967651367188e+01 -4.387377262115478516e+00 2.476169967651367188e+01 -4.933606338500976562e+01
-1.020756053924560547e+01 6.229313373565673828e+00 1.012556362152099609e+01 6.229313373565673828e+00 -2.650122451782226562e+01 -3.942598581314086914e+00 1.012556362152099609e+01 -3.942598581314086914e+00 -2.970155525207519531e+01
-1.026394081115722656e+01 9.621639251708984375e+00 9.468535423278808594e+00 9.621639251708984375e+00 -1.391655063629150391e+01 -7.921041011810302734e+00 9.468535423278808594e+00 -7.921041011810302734e+00 -2.396393013000488281e+01
-2.387448501586914062e+01 1.198400688171386719e+01 1.468072414398193359e+01 1.198400688171386719e+01 -4.946681213378906250e+01 -1.407813072204589844e+01 1.468072414398193359e+01 -1.407813072204589844e+01 -1.447064018249511719e+01
-2.656688499450683594e+01 7.788296222686767578e+00 -1.019059181213378906e+01 7.788296222686767578e+00 -3.743824386596679688e+01 -7.730186462402343750e+00 -1.019059181213378906e+01 -7.730186462402343750e+00 -3.925890731811523438e+01
-3.712905883789062500e+01 -7.692810058593750000e+00 4.070360660552978516e+00 -7.692810058593750000e+00 -5.712877655029296875e+01 3.018991708755493164e+00 4.070360660552978516e+00 3.018991708755493164e+00 -5.339017868041992188e+01
-1.725988960266113281e+01 8.263594627380371094e+00 2.320877790451049805e+00 8.263594627380371094e+00 -5.791426849365234375e+01 6.433557033538818359e+00 2.320877790451049805e+00 6.433557033538818359e+00 -4.969375991821289062e+01
-3.326382446289062500e+01 -8.774561882019042969e+00 -6.726359367370605469e+00 -8.774561882019042969e+00 -2.423202323913574219e+01 -1.492310404777526855e+00 -6.726359367370605469e+00 -1.492310404777526855e+00 -2.584356880187988281e+01
-3.023838043212890625e+00 -8.754770278930664062e+00 -1.473281621932983398e+00 -8.754770278930664062e+00 -5.472844123840332031e+00 1.312015533447265625e+00 -1.473281621932983398e+00 1.312015533447265625e+00 -3.084731483459472656e+01
-3.649877166748046875e+01 -5.033505439758300781e+00 2.149112701416015625e+01 -5.033505439758300781e+00 -1.571186828613281250e+01 2.262750434875488281e+01 2.149112701416015625e+01 2.262750434875488281e+01 7.660568237304687500e+00
-1.261313152313232422e+01 1.343664932250976562e+01 -2.849296569824218750e+00 1.343664932250976562e+01 -6.458132934570312500e+01 -1.453654861450195312e+01 -2.849296569824218750e+00 -1.453654861450195312e+01 -4.005555343627929688e+01
-4.461450958251953125e+01 -1.017648816108703613e+00 7.264480113983154297e+00 -1.017648816108703613e+00 -3.157601928710937500e+01 2.644992828369140625e+00 7.264480113983154297e+00 2.644992828369140625e+00 -2.414140319824218750e+01
-3.492089843750000000e+01 1.090224933624267578e+01 5.629867911338806152e-01 1.090224933624267578e+01 -2.655163192749023438e+01 -9.982455253601074219e+00 5.629867911338806152e-01 -9.982455253601074219e+00 -3.720061874389648438e+01
-4.153524398803710938e+01 2.283934593200683594e+01 -7.255673408508300781e+00 2.283934593200683594e+01 -3.935095977783203125e+01 -6.843144893646240234e+00 -7.255673408508300781e+00 -6.843144893646240234e+00 -4.378073883056640625e+01
-1.596934986114501953e+01 4.749249935150146484e+00 1.259323501586914062e+01 4.749249935150146484e+00 -2.884943771362304688e+01 7.186450004577636719e+00 1.259323501586914062e+01 7.186450004577636719e+00 -1.771937179565429688e+01
-6.181997680664062500e+01 1.903710746765136719e+01 3.348724544048309326e-01 1.903710746765136719e+01 -1.740259170532226562e+01 1.029586696624755859e+01 3.348724544048309326e-01 1.029586696624755859e+01 -3.307110214233398438e+01
-3.198774337768554688e+01 -2.464241743087768555e+00 1.872376441955566406e+01 -2.464241743087768555e+00 -2.376443481445312500e+01 -8.488442420959472656e+00 1.872376441955566406e+01 -8.488442420959472656e+00 -2.741200256347656250e+01
-4.601261520385742188e+01 2.106353044509887695e-01 3.695938587188720703e+00 2.106353044509887695e-01 -3.701396560668945312e+01 -1.069057559967041016e+01 3.695938587188720703e+00 -1.069057559967041016e+01 -2.841203498840332031e+01
-1.984435272216796875e+01 -5.670952796936035156e+00 9.279039382934570312e+00 -5.670952796936035156e+00 -6.174452972412109375e+01 -1.568264007568359375e+01 9.279039382934570312e+00 -1.568264007568359375e+01 -1.483814716339111328e+01
-1.878632545471191406e+01 -1.159569358825683594e+01 1.908087158203125000e+01 -1.159569358825683594e+01 -4.358856582641601562e+01 1.781589889526367188e+01 1.908087158203125000e+01 1.781589889526367188e+01 -1.064891624450683594e+01
-3.709205245971679688e+01 2.949858665466308594e+00 1.238325691223144531e+01 2.949858665466308594e+00 -5.408763122558593750e+01 -9.049710273742675781e+00 1.238325691223144531e+01 -9.049710273742675781e+00 -2.810035896301269531e+01
-6.433003902435302734e+00 6.396653652191162109e+00 -5.983709335327148438e+00 6.396653652191162109e+00 -4.221670913696289062e+01 -1.164770507812500000e+01 -5.983709335327148438e+00 -1.164770507812500000e+01 -5.566620635986328125e+01
-2.650403380393981934e-01 6.413573265075683594e+00 1.738868331909179688e+01 6.413573265075683594e+00 -1.375725269317626953e+00 1.288385486602783203e+01 1.738868331909179688e+01 1.288385486602783203e+01 -3.044978332519531250e+01
-2.769532203674316406e+01 -2.170317411422729492e+00 -5.709130287170410156e+00 -2.170317411422729492e+00 -5.371581649780273438e+01 -7.188772201538085938e+00 -5.709130287170410156e+00 -7.188772201538085938e+00 -5.718890380859375000e+01
-7.105471801757812500e+01 -1.944470024108886719e+01 -1.898957061767578125e+01 -1.944470024108886719e+01 -5.648773956298828125e+01 -4.693229198455810547e+00 -1.898957061767578125e+01 -4.693229198455810547e+00 -4.850611114501953125e+01
-3.273704528808593750e+01 6.761047363281250000e+00 1.433191394805908203e+01 6.761047363281250000e+00 -3.419795989990234375e+01 -8.166003227233886719e+00 1.433191394805908203e+01 -8.166003227233886719e+00 -8.521524429321289062e+00
-1.628710937500000000e+01 2.868947744369506836e+00 -2.214840888977050781e+01 2.868947744369506836e+00 -2.530839157104492188e+01 7.227481603622436523e-01 -2.214840888977050781e+01 7.227481603622436523e-01 -3.834593963623046875e+01
-7.439578533172607422e+00 -8.074526786804199219e+00 -2.173434972763061523e+00 -8.074526786804199219e+00 -1.171919822692871094e+00 -1.802075004577636719e+01 -2.173434972763061523e+00 -1.802075004577636719e+01 -4.268293380737304688e+01
-7.313194751739501953e+00 2.352137804031372070e+00 5.393950343132019043e-01 2.352137804031372070e+00 -4.100935745239257812e+01 -2.669196605682373047e+00 5.393950343132019043e-01 -2.669196605682373047e+00 -4.157356643676757812e+01
-2.680545234680175781e+01 -3.043242073059082031e+01 -6.536932945251464844e+00 -3.043242073059082031e+01 -3.272022008895874023e+00 -1.224110031127929688e+01 -6.536932945251464844e+00 -1.224110031127929688e+01 -2.339603805541992188e+01
6.550048351287841797e+00 4.850983142852783203e+00 7.220422267913818359e+00 4.850983142852783203e+00 -1.692674255371093750e+01 -1.697456550598144531e+01 7.220422267913818359e+00 -1.697456550598144531e+01 -6.999037933349609375e+01
-4.443348312377929688e+01 -6.233277320861816406e-01 1.506077003479003906e+01 -6.233277320861816406e-01 -1.495478916168212891e+01 2.500987052917480469e+01 1.506077003479003906e+01 2.500987052917480469e+01 1.126807880401611328e+01
-1.426567268371582031e+01 2.718196250498294830e-02 -8.137757301330566406e+00 2.718196250498294830e-02 -3.767127609252929688e+01 -2.136396408081054688e+00 -8.137757301330566406e+00 -2.136396408081054688e+00 -3.107358932495117188e+01
-3.317166519165039062e+01 -1.958964157104492188e+01 1.551526355743408203e+01 -1.958964157104492188e+01 -2.062885665893554688e+01 -1.838997268676757812e+01 1.551526355743408203e+01 -1.838997268676757812e+01 5.329401969909667969e+00
-1.098301410675048828e+01 -3.704457521438598633e+00 1.576930141448974609e+01 -3.704457521438598633e+00 -1.501322174072265625e+01 -1.293165874481201172e+01 1.576930141448974609e+01 -1.293165874481201172e+01 -2.192959213256835938e+01
-2.748633766174316406e+01 9.830656051635742188e+00 -2.627490282058715820e+00 9.830656051635742188e+00 -5.311685562133789062e+01 8.226567268371582031e+00 -2.627490282058715820e+00 8.226567268371582031e+00 -5.557604217529296875e+01
-3.963161468505859375e+01 -1.589186000823974609e+01 7.567531108856201172e+00 -1.589186000823974609e+01 -3.640517807006835938e+01 2.692950820922851562e+01 7.567531108856201172e+00 2.692950820922851562e+01 -4.135466766357421875e+01
-2.326726722717285156e+01 -3.035333251953125000e+01 5.589391231536865234e+00 -3.035333251953125000e+01 -4.513941955566406250e+01 -4.819619178771972656e+00 5.589391231536865234e+00 -4.819619178771972656e+00 -2.698689460754394531e+01
-2.875440025329589844e+01 1.154178714752197266e+01 1.607279586791992188e+01 1.154178714752197266e+01 -3.528403091430664062e+01 1.367406082153320312e+01 1.607279586791992188e+01 1.367406082153320312e+01 -3.336135864257812500e+01
-3.786263275146484375e+01 -1.189864635467529297e+01 -2.451369667053222656e+01 -1.189864635467529297e+01 -2.170245552062988281e+01 -1.090199184417724609e+01 -2.451369667053222656e+01 -1.090199184417724609e+01 -4.453295707702636719e+00
-3.738449478149414062e+01 1.133025455474853516e+01 3.849627733230590820e+00 1.133025455474853516e+01 -3.180077743530273438e+01 1.228035807609558105e+00 3.849627733230590820e+00 1.228035807609558105e+00 -6.702805995941162109e+00
-3.002221488952636719e+01 -3.958099365234375000e+01 -3.719467639923095703e+00 -3.958099365234375000e+01 -2.652687072753906250e+01 -1.913413047790527344e+01 -3.719467639923095703e+00 -1.913413047790527344e+01 -5.324494361877441406e+00
-8.697324752807617188e+00 1.545525932312011719e+01 8.887955665588378906e+00 1.545525932312011719e+01 -2.367168235778808594e+01 1.976567268371582031e+01 8.887955665588378906e+00 1.976567268371582031e+01 -1.002852439880371094e+01
-2.554351806640625000e+01 1.311257553100585938e+01 -1.589269542694091797e+01 1.311257553100585938e+01 -5.380648803710937500e+01 -2.794423341751098633e+00 -1.589269542694091797e+01 -2.794423341751098633e+00 -7.395549011230468750e+01
-4.806760787963867188e+01 -5.917140007019042969e+00 7.627511978149414062e+00 -5.917140007019042969e+00 -2.614100837707519531e+01 3.722614765167236328e+00 7.627511978149414062e+00 3.722614765167236328e+00 -1.925039863586425781e+01
-1.615607833862304688e+01 2.137960433959960938e+01 1.229621028900146484e+01 2.137960433959960938e+01 1.061843872070312500e+01 4.654853343963623047e+00 1.229621028900146484e+01 4.654853343963623047e+00 -4.830672073364257812e+01
-2.432166099548339844e+01 1.300707626342773438e+01 1.760424232482910156e+01 1.300707626342773438e+01 -2.861058616638183594e+01 1.039468002319335938e+01 1.760424232482910156e+01 1.039468002319335938e+01 -4.250589370727539062e+01
-1.188157367706298828e+01 6.409026145935058594e+00 -1.692174530029296875e+01 6.409026145935058594e+00 -1.402675247192382812e+01 -9.869852066040039062e+00 -1.692174530029296875e+01 -9.869852066040039062e+00 -1.263478279113769531e+01
-3.863107681274414062e+01 1.043758392333984375e+01 -1.349835586547851562e+01 1.043758392333984375e+01 -5.576577377319335938e+01 7.595127105712890625e+00 -1.349835586547851562e+01 7.595127105712890625e+00 -5.775902557373046875e+01
-4.024359512329101562e+01 -1.371881675720214844e+01 1.284296703338623047e+01 -1.371881675720214844e+01 -4.239798736572265625e+01 9.258090972900390625e+00 1.284296703338623047e+01 9.258090972900390625e+00 -7.988716888427734375e+01
1.046593284606933594e+01 1.033992481231689453e+01 -5.503445625305175781e+00 1.033992481231689453e+01 -9.473895072937011719e+00 -1.060267353057861328e+01 -5.503445625305175781e+00 -1.060267353057861328e+01 -8.432827949523925781e+00
-5.225124740600585938e+01 6.758322238922119141e+00 6.774909496307373047e+00 6.758322238922119141e+00 -3.674440383911132812e+01 -1.032381725311279297e+01 6.774909496307373047e+00 -1.032381725311279297e+01 -5.242005538940429688e+01
-8.980643463134765625e+01 -9.045552253723144531e+00 5.745776653289794922e+00 -9.045552253723144531e+00 -9.739325714111328125e+01 1.241762542724609375e+01 5.745776653289794922e+00 1.241762542724609375e+01 -4.124034500122070312e+01
-2.518873977661132812e+01 8.587259650230407715e-01 -1.389651679992675781e+01 8.587259650230407715e-01 -3.206509399414062500e+01 1.535493850708007812e+00 -1.389651679992675781e+01 1.535493850708007812e+00 -4.553722763061523438e+01
-2.410191726684570312e+01 1.072026348114013672e+01 -1.035812282562255859e+01 1.072026348114013672e+01 -3.004238700866699219e+01 -9.780524253845214844e+00 -1.035812282562255859e+01 -9.780524253845214844e+00 -5.143673706054687500e+01
-8.449193954467773438e+00 1.579199600219726562e+01 7.905039310455322266e+00 1.579199600219726562e+01 -4.147344970703125000e+01 3.266917943954467773e+00 7.905039310455322266e+00 3.266917943954467773e+00 -4.557813262939453125e+01
-9.992157936096191406e+00 -3.750601768493652344e+00 -1.170625782012939453e+01 -3.750601768493652344e+00 -1.664620208740234375e+01 1.519394016265869141e+01 -1.170625782012939453e+01 1.519394016265869141e+01 -5.705420684814453125e+01
-1.327853870391845703e+01 -6.718340396881103516e+00 3.794906854629516602e+00 -6.718340396881103516e+00 -3.947705459594726562e+01 1.379861354827880859e+01 3.794906854629516602e+00 1.379861354827880859e+01 -2.810375022888183594e+01
-2.293108177185058594e+01 -7.211231708526611328e+00 -1.482813644409179688e+01 -7.211231708526611328e+00 -4.478060150146484375e+01 -2.275735092163085938e+01 -1.482813644409179688e+01 -2.275735092163085938e+01 -3.097305488586425781e+01
-1.900571823120117188e+01 -4.028230190277099609e+00 -2.325549602508544922e+00 -4.028230190277099609e+00 -4.937072753906250000e+01 2.784456729888916016e+00 -2.325549602508544922e+00 2.784456729888916016e+00 -5.664254760742187500e+01
-3.059124755859375000e+01 2.339484024047851562e+01 -2.091693687438964844e+01 2.339484024047851562e+01 -1.904644012451171875e+01 3.832719326019287109e+00 -2.091693687438964844e+01 3.832719326019287109e+00 -5.217426681518554688e+01
-1.531580352783203125e+01 1.729520416259765625e+01 -1.788509178161621094e+01 1.729520416259765625e+01 -1.373864459991455078e+01 2.432905584573745728e-01 -1.788509178161621094e+01 2.432905584573745728e-01 -4.796341705322265625e+01
-5.100601577758789062e+01 3.035506629943847656e+01 -9.008117675781250000e+00 3.035506629943847656e+01 -5.143527984619140625e+01 -1.257506370544433594e+01 -9.008117675781250000e+00 -1.257506370544433594e+01 -2.551766777038574219e+01
-3.065149497985839844e+01 1.950555992126464844e+01 -3.573152542114257812e+00 1.950555992126464844e+01 -3.075179481506347656e+01 -1.057931232452392578e+01 -3.573152542114257812e+00 -1.057931232452392578e+01 -2.801454925537109375e+01
-3.819265365600585938e+01 1.070157766342163086e+00 1.694597625732421875e+01 1.070157766342163086e+00 9.173329472541809082e-01 -9.689967155456542969e+00 1.694597625732421875e+01 -9.689967155456542969e+00 -2.188667678833007812e+01
-3.842171859741210938e+01 2.387950515747070312e+01 -1.022793388366699219e+01 2.387950515747070312e+01 -1.149633789062500000e+01 -1.105521297454833984e+01 -1.022793388366699219e+01 -1.105521297454833984e+01 -3.128867530822753906e+01
-6.132563018798828125e+01 -1.993813705444335938e+01 -8.405271530151367188e+00 -1.993813705444335938e+01 -3.132501411437988281e+01 9.902744293212890625e+00 -8.405271530151367188e+00 9.902744293212890625e+00 -3.386702346801757812e+01
-1.159626245498657227e+00 1.233747768402099609e+01 -2.246765327453613281e+01 1.233747768402099609e+01 -4.227513504028320312e+01 -9.451104164123535156e+00 -2.246765327453613281e+01 -9.451104164123535156e+00 -3.784664630889892578e+00
-3.280407714843750000e+01 8.487797975540161133e-01 -5.647343635559082031e+00 8.487797975540161133e-01 -3.878974533081054688e+01 -1.035931110382080078e+01 -5.647343635559082031e+00 -1.035931110382080078e+01 -2.736933898925781250e+01
-2.418749618530273438e+01 -1.436150932312011719e+01 -1.684250384569168091e-01 -1.436150932312011719e+01 -6.830042362213134766e+00 2.060011291503906250e+01 -1.684250384569168091e-01 2.060011291503906250e+01 -4.167787551879882812e+01
-6.141540527343750000e+00 -1.356223678588867188e+01 -2.346774101257324219e+01 -1.356223678588867188e+01 -4.795029067993164062e+01 2.936384677886962891e-01 -2.346774101257324219e+01 2.936384677886962891e-01 -2.056747627258300781e+01
-7.420039367675781250e+01 -1.235057258605957031e+01 -6.421745300292968750e+00 -1.235057258605957031e+01 -4.065066909790039062e+01 3.884695053100585938e+00 -6.421745300292968750e+00 3.884695053100585938e+00 -6.027297973632812500e+01
-1.989158248901367188e+01 9.580536842346191406e+00 -9.470222473144531250e+00 9.580536842346191406e+00 -6.659397888183593750e+01 2.335350513458251953e+00 -9.470222473144531250e+00 2.335350513458251953e+00 -3.132111167907714844e+01
-1.883418655395507812e+01 3.984012126922607422e+00 2.444371581077575684e-01 3.984012126922607422e+00 -3.667635726928710938e+01 -3.877366256713867188e+01 2.444371581077575684e-01 -3.877366256713867188e+01 -3.991093444824218750e+01
-7.712627887725830078e+00 2.182997703552246094e+01 7.182355403900146484e+00 2.182997703552246094e+01 -5.491777038574218750e+01 -2.227473735809326172e+00 7.182355403900146484e+00 -2.227473735809326172e+00 -1.664035606384277344e+01
-3.436051559448242188e+01 -1.148099708557128906e+01 -3.314304947853088379e-01 -1.148099708557128906e+01 -3.091399574279785156e+01 6.754181861877441406e+00 -3.314304947853088379e-01 6.754181861877441406e+00 -2.427078628540039062e+01
1.629590034484863281e+01 -9.319282531738281250e+00 4.089302539825439453e+00 -9.319282531738281250e+00 -2.457322692871093750e+01 3.284957885742187500e+01 4.089302539825439453e+00 3.284957885742187500e+01 -4.317500305175781250e+01
-7.426776123046875000e+01 7.630259990692138672e-01 -1.312166309356689453e+01 7.630259990692138672e-01 -6.326756668090820312e+01 -2.030819892883300781e+01 -1.312166309356689453e+01 -2.030819892883300781e+01 -6.993607330322265625e+01
-5.646545028686523438e+01 -2.028917312622070312e+01 -5.738706111907958984e+00 -2.028917312622070312e+01 -3.550764846801757812e+01 -2.188284301757812500e+01 -5.738706111907958984e+00 -2.188284301757812500e+01 -1.735737419128417969e+01
-4.011929512023925781e+00 1.280130004882812500e+01 -1.617642211914062500e+01 1.280130004882812500e+01 -3.968361282348632812e+01 5.424107551574707031e+00 -1.617642211914062500e+01 5.424107551574707031e+00 -1.963030624389648438e+01
-4.517640304565429688e+01 -1.889710235595703125e+01 -2.358952522277832031e+00 -1.889710235595703125e+01 -3.390375900268554688e+01 -1.779235839843750000e+01 -2.358952522277832031e+00 -1.779235839843750000e+01 -1.276606464385986328e+01
-6.772438812255859375e+01 -8.047429323196411133e-01 -1.026451206207275391e+01 -8.047429323196411133e-01 -1.929328727722167969e+01 1.147536277770996094e+01 -1.026451206207275391e+01 1.147536277770996094e+01 -4.108531570434570312e+01
-4.437197113037109375e+01 7.346240997314453125e+00 -9.400300979614257812e+00 7.346240997314453125e+00 -5.537739944458007812e+01 8.587964057922363281e+00 -9.400300979614257812e+00 8.587964057922363281e+00 -2.945621299743652344e+01
-6.878013610839843750e+01 4.474052906036376953e+00 -2.078858184814453125e+01 4.474052906036376953e+00 -3.514508438110351562e+01 -2.232802009582519531e+01 -2.078858184814453125e+01 -2.232802009582519531e+01 -5.629695510864257812e+01
-4.293652343750000000e+01 -2.317608261108398438e+01 -1.611397171020507812e+01 -2.317608261108398438e+01 -3.823967218399047852e+00 3.877775192260742188e+00 -1.611397171020507812e+01 3.877775192260742188e+00 -1.081359577178955078e+01
-2.628832817077636719e+01 2.334341049194335938e+01 5.664318084716796875e+00 2.334341049194335938e+01 -2.031955146789550781e+01 -1.020246219635009766e+01 5.664318084716796875e+00 -1.020246219635009766e+01 -3.456522750854492188e+01
-4.182693099975585938e+01 -1.366562652587890625e+01 9.099126815795898438e+00 -1.366562652587890625e+01 -5.126511001586914062e+01 5.353517532348632812e-01 9.099126815795898438e+00 5.353517532348632812e-01 -8.777983188629150391e-01
-4.582052230834960938e+01 -6.898827552795410156e+00 3.637756586074829102e+00 -6.898827552795410156e+00 -5.898404693603515625e+01 -5.664822101593017578e+00 3.637756586074829102e+00 -5.664822101593017578e+00 -4.076392745971679688e+01
-4.982938385009765625e+01 -3.510750055313110352e+00 5.954752564430236816e-01 -3.510750055313110352e+00 -4.869490432739257812e+01 -2.428515911102294922e+00 5.954752564430236816e-01 -2.428515911102294922e+00 -4.453057098388671875e+01
-2.950238800048828125e+01 -4.733406066894531250e+00 5.533791065216064453e+00 -4.733406066894531250e+00 -3.116205024719238281e+01 -1.846183967590332031e+01 5.533791065216064453e+00 -1.846183967590332031e+01 -4.614720153808593750e+01
-5.110464859008789062e+01 5.337760448455810547e+00 2.278673934936523438e+01 5.337760448455810547e+00 -5.305318450927734375e+01 5.286135196685791016e+00 2.278673934936523438e+01 5.286135196685791016e+00 -3.384550476074218750e+01
-4.244998550415039062e+01 -1.444866180419921875e+01 -1.283221435546875000e+01 -1.444866180419921875e+01 -6.047401809692382812e+01 -2.530343294143676758e+00 -1.283221435546875000e+01 -2.530343294143676758e+00 -5.544012832641601562e+01
-6.318651962280273438e+01 -3.861241102218627930e+00 -2.278822517395019531e+01 -3.861241102218627930e+00 -3.473906707763671875e+01 -1.398545384407043457e+00 -2.278822517395019531e+01 -1.398545384407043457e+00 -3.516959381103515625e+01
-6.786355590820312500e+01 2.507324814796447754e-01 2.703586006164550781e+01 2.507324814796447754e-01 -2.213053894042968750e+01 -1.640852808952331543e+00 2.703586006164550781e+01 -1.640852808952331543e+00 -5.699030303955078125e+01
-6.216571426391601562e+01 8.215011596679687500e+00 -1.158685207366943359e+01 8.215011596679687500e+00 -8.174711227416992188e+00 -1.293178319931030273e+00 -1.158685207366943359e+01 -1.293178319931030273e+00 -5.507801532745361328e+00
-5.955444335937500000e+01 -1.173198103904724121e+00 -8.705834388732910156e+00 -1.173198103904724121e+00 -3.747868728637695312e+01 7.065128326416015625e+00 -8.705834388732910156e+00 7.065128326416015625e+00 -4.464695358276367188e+01
-8.609892272949218750e+01 3.963217313867062330e-04 3.527956247329711914e+00 3.963217313867062330e-04 -6.885541534423828125e+01 -1.584444522857666016e+01 3.527956247329711914e+00 -1.584444522857666016e+01 -7.214176177978515625e+01
1.681393861770629883e+00 7.936068534851074219e+00 1.028102779388427734e+01 7.936068534851074219e+00 -7.185393810272216797e+00 -1.884840965270996094e+01 1.028102779388427734e+01 -1.884840965270996094e+01 -1.778472328186035156e+01
-5.997977447509765625e+01 1.163940811157226562e+01 3.338902473449707031e+00 1.163940811157226562e+01 -7.998678207397460938e+00 -5.807785034179687500e+00 3.338902473449707031e+00 -5.807785034179687500e+00 -3.942044830322265625e+01
-3.993309402465820312e+01 -8.537887334823608398e-01 2.225427865982055664e+00 -8.537887334823608398e-01 -4.892495346069335938e+01 -3.156787872314453125e+01 2.225427865982055664e+00 -3.156787872314453125e+01 -5.300242996215820312e+01
-3.840661239624023438e+01 6.485792398452758789e-01 6.795824527740478516e+00 6.485792398452758789e-01 -4.077746963500976562e+01 3.100331783294677734e+00 6.795824527740478516e+00 3.100331783294677734e+00 -5.572497940063476562e+01
-2.944878959655761719e+01 -3.729254722595214844e+00 -4.654464125633239746e-01 -3.729254722595214844e+00 -9.709603309631347656e+00 -3.692934036254882812e+00 -4.654464125633239746e-01 -3.692934036254882812e+00 -1.791866493225097656e+01
-3.690913391113281250e+01 8.922235488891601562e+00 -9.947466850280761719e+00 8.922235488891601562e+00 -2.797807502746582031e+01 -3.573091626167297363e-01 -9.947466850280761719e+00 -3.573091626167297363e-01 -6.326424026489257812e+01
-8.033708190917968750e+01 -5.814790725708007812e+00 -7.006518840789794922e+00 -5.814790725708007812e+00 -4.423067855834960938e+01 -2.026118040084838867e+00 -7.006518840789794922e+00 -2.026118040084838867e+00 -2.606038665771484375e+01
-2.601256179809570312e+01 1.477587223052978516e+01 1.079027295112609863e+00 1.477587223052978516e+01 -3.249552154541015625e+01 -3.331470251083374023e+00 1.079027295112609863e+00 -3.331470251083374023e+00 -2.620397186279296875e+01
-1.147461986541748047e+01 1.782972908020019531e+01 -2.322466468811035156e+01 1.782972908020019531e+01 8.599741935729980469e+00 -4.770528078079223633e-01 -2.322466468811035156e+01 -4.770528078079223633e-01 -1.964398574829101562e+01
3.787019252777099609e+00 -2.257881164550781250e+01 -3.201371908187866211e+00 -2.257881164550781250e+01 -4.068012619018554688e+01 -2.636944198608398438e+01 -3.201371908187866211e+00 -2.636944198608398438e+01 -6.492952823638916016e+00
-5.540468215942382812e+01 -1.163678359985351562e+01 1.481441974639892578e+01 -1.163678359985351562e+01 -4.373760223388671875e+01 -5.771655559539794922e+00 1.481441974639892578e+01 -5.771655559539794922e+00 -3.160244178771972656e+01
9.084104299545288086e-01 4.045681953430175781e+00 1.376342964172363281e+01 4.045681953430175781e+00 -1.237241077423095703e+01 -1.858795356750488281e+01 1.376342964172363281e+01 -1.858795356750488281e+01 -6.970122528076171875e+01
-3.974586486816406250e+01 1.005588340759277344e+01 2.346813201904296875e+01 1.005588340759277344e+01 -1.474012470245361328e+01 8.222860336303710938e+00 2.346813201904296875e+01 8.222860336303710938e+00 -4.241290664672851562e+01
-9.315927505493164062e+00 1.792074143886566162e-01 2.654275417327880859e+00 1.792074143886566162e-01 -1.238820171356201172e+01 7.327107906341552734e+00 2.654275417327880859e+00 7.327107906341552734e+00 3.870969533920288086e+00
-2.926680755615234375e+01 4.499917507171630859e+00 3.955887317657470703e+00 4.499917507171630859e+00 -2.446052360534667969e+01 -1.227570152282714844e+01 3.955887317657470703e+00 -1.227570152282714844e+01 -2.515748023986816406e+01
-4.257007598876953125e+01 1.158825278282165527e+00 3.727018594741821289e+00 1.158825278282165527e+00 9.111891388893127441e-01 6.566569209098815918e-01 3.727018594741821289e+00 6.566569209098815918e-01 -4.765010070800781250e+01
-4.021349334716796875e+01 -4.734578609466552734e+00 -1.282043075561523438e+01 -4.734578609466552734e+00 -5.562883758544921875e+01 1.492930698394775391e+01 -1.282043075561523438e+01 1.492930698394775391e+01 8.264251708984375000e+00
-6.820507812500000000e+01 9.387658119201660156e+00 -2.036264896392822266e+00 9.387658119201660156e+00 -7.265864562988281250e+01 1.127093124389648438e+01 -2.036264896392822266e+00 1.127093124389648438e+01 -3.654814147949218750e+01
-3.993236541748046875e+01 -1.267795944213867188e+01 8.760357856750488281e+00 -1.267795944213867188e+01 -4.519551467895507812e+01 -2.097255897521972656e+01 8.760357856750488281e+00 -2.097255897521972656e+01 -6.297958755493164062e+01
-3.984580230712890625e+01 -1.770406913757324219e+01 -2.004158258438110352e+00 -1.770406913757324219e+01 -3.594344329833984375e+01 7.392957210540771484e-01 -2.004158258438110352e+00 7.392957210540771484e-01 -6.035579299926757812e+01
-6.528670501708984375e+01 1.324479103088378906e+01 3.742202043533325195e+00 1.324479103088378906e+01 -6.457755279541015625e+01 1.006942367553710938e+01 3.742202043533325195e+00 1.006942367553710938e+01 -4.426380920410156250e+01
-1.980083274841308594e+01 -2.481364822387695312e+01 -5.211829662322998047e+00 -2.481364822387695312e+01 -3.857720184326171875e+01 -5.825731754302978516e+00 -5.211829662322998047e+00 -5.825731754302978516e+00 -3.253929519653320312e+01
-5.077302169799804688e+01 -9.635045051574707031e+00 -5.263000965118408203e+00 -9.635045051574707031e+00 -2.939936256408691406e+01 -1.704924583435058594e+01 -5.263000965118408203e+00 -1.704924583435058594e+01 -5.068642425537109375e+01
-2.633668708801269531e+01 -1.342858505249023438e+01 -5.286363601684570312e+00 -1.342858505249023438e+01 -1.751801300048828125e+01 -2.815460586547851562e+01 -5.286363601684570312e+00 -2.815460586547851562e+01 -2.967073440551757812e+01
-6.273957061767578125e+01 -8.056389808654785156e+00 -2.405103206634521484e+00 -8.056389808654785156e+00 -1.369852447509765625e+01 1.817519664764404297e+00 -2.405103206634521484e+00 1.817519664764404297e+00 -5.676191711425781250e+01
-8.289781212806701660e-01 2.168782043457031250e+01 3.119676113128662109e+00 2.168782043457031250e+01 -5.565679550170898438e+00 3.740562915802001953e+00 3.119676113128662109e+00 3.740562915802001953e+00 1.500040340423583984e+01
-6.932242584228515625e+01 -2.123623275756835938e+01 -2.389117240905761719e+01 -2.123623275756835938e+01 -4.507667160034179688e+01 -5.697822093963623047e+00 -2.389117240905761719e+01 -5.697822093963623047e+00 -2.491660881042480469e+01
-7.517176818847656250e+01 1.060880947113037109e+01 -1.841597175598144531e+01 1.060880947113037109e+01 -7.764392852783203125e+01 2.414278984069824219e+00 -1.841597175598144531e+01 2.414278984069824219e+00 -4.431816482543945312e+01
-4.077264022827148438e+01 3.348324298858642578e+00 8.878697156906127930e-01 3.348324298858642578e+00 5.948676466941833496e-01 -3.788413619995117188e+01 8.878697156906127930e-01 -3.788413619995117188e+01 -2.947172927856445312e+01
-4.487342071533203125e+01 2.575829029083251953e+00 -6.839450359344482422e+00 2.575829029083251953e+00 -1.233566093444824219e+01 -9.348916053771972656e+00 -6.839450359344482422e+00 -9.348916053771972656e+00 -4.078008270263671875e+01
-2.750651931762695312e+01 1.334674263000488281e+01 2.332175445556640625e+01 1.334674263000488281e+01 -3.201293182373046875e+01 -1.655486583709716797e+00 2.332175445556640625e+01 -1.655486583709716797e+00 -4.255530929565429688e+01
-5.759229278564453125e+01 -5.461608886718750000e+00 -4.931256294250488281e+00 -5.461608886718750000e+00 -7.202605438232421875e+01 -2.217595100402832031e+01 -4.931256294250488281e+00 -2.217595100402832031e+01 -7.041220855712890625e+01