1.735899925231933594e+01 0.000000000000000000e+00 0.000000000000000000e+00 -3.549999892711639404e-01 1.790500068664550781e+01 0.000000000000000000e+00 -4.289999902248382568e-01 -5.400000140070915222e-02 1.768199920654296875e+01
1.723200035095214844e+01 0.000000000000000000e+00 0.000000000000000000e+00 -3.519999980926513672e-01 1.777300071716308594e+01 0.000000000000000000e+00 -4.250000119209289551e-01 -5.299999937415122986e-02 1.755299949645996094e+01
1.722500038146972656e+01 0.000000000000000000e+00 0.000000000000000000e+00 -3.519999980926513672e-01 1.776700019836425781e+01 0.000000000000000000e+00 -4.250000119209289551e-01 -5.299999937415122986e-02 1.754599952697753906e+01
1.736300086975097656e+01 0.000000000000000000e+00 0.000000000000000000e+00 -3.549999892711639404e-01 1.790900039672851562e+01 0.000000000000000000e+00 -4.289999902248382568e-01 -5.400000140070915222e-02 1.768600082397460938e+01
1.729199981689453125e+01 0.000000000000000000e+00 0.000000000000000000e+00 -3.540000021457672119e-01 1.783600044250488281e+01 0.000000000000000000e+00 -4.269999861717224121e-01 -5.400000140070915222e-02 1.761400032043457031e+01
1.738899993896484375e+01 0.000000000000000000e+00 0.000000000000000000e+00 -3.560000061988830566e-01 1.793600082397460938e+01 0.000000000000000000e+00 -4.289999902248382568e-01 -5.400000140070915222e-02 1.771299934387207031e+01
1.730299949645996094e+01 0.000000000000000000e+00 0.000000000000000000e+00 -3.540000021457672119e-01 1.784600067138671875e+01 0.000000000000000000e+00 -4.269999861717224121e-01 -5.400000140070915222e-02 1.762500000000000000e+01
1.729800033569335938e+01 0.000000000000000000e+00 0.000000000000000000e+00 -3.540000021457672119e-01 1.784199905395507812e+01 0.000000000000000000e+00 -4.269999861717224121e-01 -5.400000140070915222e-02 1.762000083923339844e+01
1.728800010681152344e+01 0.000000000000000000e+00 0.000000000000000000e+00 -3.529999852180480957e-01 1.783099937438964844e+01 0.000000000000000000e+00 -4.269999861717224121e-01 -5.400000140070915222e-02 1.761000061035156250e+01
1.734600067138671875e+01 0.000000000000000000e+00 0.000000000000000000e+00 -3.549999892711639404e-01 1.789100074768066406e+01 0.000000000000000000e+00 -4.280000030994415283e-01 -5.400000140070915222e-02 1.766900062561035156e+01
1.735499954223632812e+01 0.000000000000000000e+00 0.000000000000000000e+00 -3.549999892711639404e-01 1.789999961853027344e+01 0.000000000000000000e+00 -4.280000030994415283e-01 -5.400000140070915222e-02 1.767799949645996094e+01
1.723500061035156250e+01 0.000000000000000000e+00 0.000000000000000000e+00 -3.519999980926513672e-01 1.777700042724609375e+01 0.000000000000000000e+00 -4.250000119209289551e-01 -5.299999937415122986e-02 1.755599975585937500e+01
1.734300041198730469e+01 0.000000000000000000e+00 0.000000000000000000e+00 -3.549999892711639404e-01 1.788800048828125000e+01 0.000000000000000000e+00 -4.280000030994415283e-01 -5.400000140070915222e-02 1.766600036621093750e+01
1.733900070190429688e+01 0.000000000000000000e+00 0.000000000000000000e+00 -3.540000021457672119e-01 1.788400077819824219e+01 0.000000000000000000e+00 -4.280000030994415283e-01 -5.400000140070915222e-02 1.766200065612792969e+01
1.727000045776367188e+01 0.000000000000000000e+00 0.000000000000000000e+00 -3.529999852180480957e-01 1.781299972534179688e+01 0.000000000000000000e+00 -4.259999990463256836e-01 -5.400000140070915222e-02 1.759099960327148438e+01
1.732900047302246094e+01 0.000000000000000000e+00 0.000000000000000000e+00 -3.540000021457672119e-01 1.787400054931640625e+01 0.000000000000000000e+00 -4.280000030994415283e-01 -5.400000140070915222e-02 1.765200042724609375e+01
1.728300094604492188e+01 0.000000000000000000e+00 0.000000000000000000e+00 -3.529999852180480957e-01 1.782600021362304688e+01 0.000000000000000000e+00 -4.269999861717224121e-01 -5.400000140070915222e-02 1.760499954223632812e+01
1.732799911499023438e+01 0.000000000000000000e+00 0.000000000000000000e+00 -3.540000021457672119e-01 1.787199974060058594e+01 0.000000000000000000e+00 -4.280000030994415283e-01 -5.400000140070915222e-02 1.764999961853027344e+01
1.727000045776367188e+01 0.000000000000000000e+00 0.000000000000000000e+00 -3.529999852180480957e-01 1.781299972534179688e+01 0.000000000000000000e+00 -4.259999990463256836e-01 -5.400000140070915222e-02 1.759199905395507812e+01
1.729400062561035156e+01 0.000000000000000000e+00 0.000000000000000000e+00 -3.540000021457672119e-01 1.783799934387207031e+01 0.000000000000000000e+00 -4.269999861717224121e-01 -5.400000140070915222e-02 1.761599922180175781e+01
1.731399917602539062e+01 0.000000000000000000e+00 0.000000000000000000e+00 -3.540000021457672119e-01 1.785799980163574219e+01 0.000000000000000000e+00 -4.269999861717224121e-01 -5.400000140070915222e-02 1.763699913024902344e+01
1.727000045776367188e+01 0.000000000000000000e+00 0.000000000000000000e+00 -3.529999852180480957e-01 1.781299972534179688e+01 0.000000000000000000e+00 -4.259999990463256836e-01 -5.400000140070915222e-02 1.759199905395507812e+01
1.734700012207031250e+01 0.000000000000000000e+00 0.000000000000000000e+00 -3.549999892711639404e-01 1.789200019836425781e+01 0.000000000000000000e+00 -4.280000030994415283e-01 -5.400000140070915222e-02 1.767000007629394531e+01
1.728199958801269531e+01 0.000000000000000000e+00 0.000000000000000000e+00 -3.529999852180480957e-01 1.782500076293945312e+01 0.000000000000000000e+00 -4.269999861717224121e-01 -5.400000140070915222e-02 1.760300064086914062e+01
1.730200004577636719e+01 0.000000000000000000e+00 0.000000000000000000e+00 -3.540000021457672119e-01 1.784600067138671875e+01 0.000000000000000000e+00 -4.269999861717224121e-01 -5.400000140070915222e-02 1.762500000000000000e+01
1.728100013732910156e+01 0.000000000000000000e+00 0.000000000000000000e+00 -3.529999852180480957e-01 1.782399940490722656e+01 0.000000000000000000e+00 -4.269999861717224121e-01 -5.400000140070915222e-02 1.760199928283691406e+01
1.723999977111816406e+01 0.000000000000000000e+00 0.000000000000000000e+00 -3.519999980926513672e-01 1.778199958801269531e+01 0.000000000000000000e+00 -4.259999990463256836e-01 -5.299999937415122986e-02 1.756100082397460938e+01
1.730699920654296875e+01 0.000000000000000000e+00 0.000000000000000000e+00 -3.540000021457672119e-01 1.785099983215332031e+01 0.000000000000000000e+00 -4.269999861717224121e-01 -5.400000140070915222e-02 1.762899971008300781e+01
1.730500030517578125e+01 0.000000000000000000e+00 0.000000000000000000e+00 -3.540000021457672119e-01 1.784900093078613281e+01 0.000000000000000000e+00 -4.269999861717224121e-01 -5.400000140070915222e-02 1.762700080871582031e+01
1.730400085449218750e+01 0.000000000000000000e+00 0.000000000000000000e+00 -3.540000021457672119e-01 1.784799957275390625e+01 0.000000000000000000e+00 -4.269999861717224121e-01 -5.400000140070915222e-02 1.762599945068359375e+01
1.727899932861328125e+01 0.000000000000000000e+00 0.000000000000000000e+00 -3.529999852180480957e-01 1.782299995422363281e+01 0.000000000000000000e+00 -4.269999861717224121e-01 -5.400000140070915222e-02 1.760099983215332031e+01
1.732099914550781250e+01 0.000000000000000000e+00 0.000000000000000000e+00 -3.540000021457672119e-01 1.786599922180175781e+01 0.000000000000000000e+00 -4.280000030994415283e-01 -5.400000140070915222e-02 1.764399909973144531e+01
1.729700088500976562e+01 0.000000000000000000e+00 0.000000000000000000e+00 -3.540000021457672119e-01 1.784099960327148438e+01 0.000000000000000000e+00 -4.269999861717224121e-01 -5.400000140070915222e-02 1.761899948120117188e+01
1.731599998474121094e+01 0.000000000000000000e+00 0.000000000000000000e+00 -3.540000021457672119e-01 1.786000061035156250e+01 0.000000000000000000e+00 -4.269999861717224121e-01 -5.400000140070915222e-02 1.763800048828125000e+01
1.729599952697753906e+01 0.000000000000000000e+00 0.000000000000000000e+00 -3.540000021457672119e-01 1.783900070190429688e+01 0.000000000000000000e+00 -4.269999861717224121e-01 -5.400000140070915222e-02 1.761800003051757812e+01
1.734199905395507812e+01 0.000000000000000000e+00 0.000000000000000000e+00 -3.549999892711639404e-01 1.788699913024902344e+01 0.000000000000000000e+00 -4.280000030994415283e-01 -5.400000140070915222e-02 1.766500091552734375e+01
1.725200080871582031e+01 0.000000000000000000e+00 0.000000000000000000e+00 -3.529999852180480957e-01 1.779400062561035156e+01 0.000000000000000000e+00 -4.259999990463256836e-01 -5.299999937415122986e-02 1.757299995422363281e+01
1.730500030517578125e+01 0.000000000000000000e+00 0.000000000000000000e+00 -3.540000021457672119e-01 1.784900093078613281e+01 0.000000000000000000e+00 -4.269999861717224121e-01 -5.400000140070915222e-02 1.762700080871582031e+01
1.736599922180175781e+01 0.000000000000000000e+00 0.000000000000000000e+00 -3.549999892711639404e-01 1.791099929809570312e+01 0.000000000000000000e+00 -4.289999902248382568e-01 -5.400000140070915222e-02 1.768899917602539062e+01
1.724799919128417969e+01 0.000000000000000000e+00 0.000000000000000000e+00 -3.529999852180480957e-01 1.779000091552734375e+01 0.000000000000000000e+00 -4.259999990463256836e-01 -5.299999937415122986e-02 1.756900024414062500e+01
1.734099960327148438e+01 0.000000000000000000e+00 0.000000000000000000e+00 -3.549999892711639404e-01 1.788599967956542969e+01 0.000000000000000000e+00 -4.280000030994415283e-01 -5.400000140070915222e-02 1.766399955749511719e+01
1.727400016784667969e+01 0.000000000000000000e+00 0.000000000000000000e+00 -3.529999852180480957e-01 1.781699943542480469e+01 0.000000000000000000e+00 -4.259999990463256836e-01 -5.400000140070915222e-02 1.759600067138671875e+01
1.727000045776367188e+01 0.000000000000000000e+00 0.000000000000000000e+00 -3.529999852180480957e-01 1.781299972534179688e+01 0.000000000000000000e+00 -4.259999990463256836e-01 -5.400000140070915222e-02 1.759099960327148438e+01
1.727099990844726562e+01 0.000000000000000000e+00 0.000000000000000000e+00 -3.529999852180480957e-01 1.781399917602539062e+01 0.000000000000000000e+00 -4.259999990463256836e-01 -5.400000140070915222e-02 1.759300041198730469e+01
1.735899925231933594e+01 0.000000000000000000e+00 0.000000000000000000e+00 -3.549999892711639404e-01 1.790500068664550781e+01 0.000000000000000000e+00 -4.289999902248382568e-01 -5.400000140070915222e-02 1.768199920654296875e+01
1.747299957275390625e+01 0.000000000000000000e+00 0.000000000000000000e+00 -3.569999933242797852e-01 1.802199935913085938e+01 0.000000000000000000e+00 -4.309999942779541016e-01 -5.400000140070915222e-02 1.779899978637695312e+01
1.748999977111816406e+01 0.000000000000000000e+00 0.000000000000000000e+00 -3.580000102519989014e-01 1.803899955749511719e+01 0.000000000000000000e+00 -4.320000112056732178e-01 -5.400000140070915222e-02 1.781500053405761719e+01
1.754500007629394531e+01 0.000000000000000000e+00 0.000000000000000000e+00 -3.589999973773956299e-01 1.809700012207031250e+01 0.000000000000000000e+00 -4.329999983310699463e-01 -5.400000140070915222e-02 1.787199974060058594e+01
1.765299987792968750e+01 0.000000000000000000e+00 0.000000000000000000e+00 -3.610000014305114746e-01 1.820800018310546875e+01 0.000000000000000000e+00 -4.359999895095825195e-01 -5.499999970197677612e-02 1.798200035095214844e+01
1.752499961853027344e+01 0.000000000000000000e+00 0.000000000000000000e+00 -3.580000102519989014e-01 1.807600021362304688e+01 0.000000000000000000e+00 -4.329999983310699463e-01 -5.400000140070915222e-02 1.785099983215332031e+01
1.759700012207031250e+01 0.000000000000000000e+00 0.000000000000000000e+00 -3.600000143051147461e-01 1.814999961853027344e+01 0.000000000000000000e+00 -4.339999854564666748e-01 -5.499999970197677612e-02 1.792499923706054688e+01
1.755800056457519531e+01 0.000000000000000000e+00 0.000000000000000000e+00 -3.589999973773956299e-01 1.811000061035156250e+01 0.000000000000000000e+00 -4.329999983310699463e-01 -5.400000140070915222e-02 1.788500022888183594e+01
1.755900001525878906e+01 0.000000000000000000e+00 0.000000000000000000e+00 -3.589999973773956299e-01 1.811000061035156250e+01 0.000000000000000000e+00 -4.329999983310699463e-01 -5.400000140070915222e-02 1.788500022888183594e+01
1.756699943542480469e+01 0.000000000000000000e+00 0.000000000000000000e+00 -3.589999973773956299e-01 1.811899948120117188e+01 0.000000000000000000e+00 -4.339999854564666748e-01 -5.400000140070915222e-02 1.789399909973144531e+01
1.763299942016601562e+01 0.000000000000000000e+00 0.000000000000000000e+00 -3.600000143051147461e-01 1.818700027465820312e+01 0.000000000000000000e+00 -4.350000023841857910e-01 -5.499999970197677612e-02 1.796199989318847656e+01
1.751099967956542969e+01 0.000000000000000000e+00 0.000000000000000000e+00 -3.580000102519989014e-01 1.806100082397460938e+01 0.000000000000000000e+00 -4.320000112056732178e-01 -5.400000140070915222e-02 1.783699989318847656e+01
1.761400032043457031e+01 0.000000000000000000e+00 0.000000000000000000e+00 -3.600000143051147461e-01 1.816699981689453125e+01 0.000000000000000000e+00 -4.350000023841857910e-01 -5.499999970197677612e-02 1.794199943542480469e+01
1.764900016784667969e+01 0.000000000000000000e+00 0.000000000000000000e+00 -3.610000014305114746e-01 1.820400047302246094e+01 0.000000000000000000e+00 -4.359999895095825195e-01 -5.499999970197677612e-02 1.797699928283691406e+01
1.759099960327148438e+01 0.000000000000000000e+00 0.000000000000000000e+00 -3.600000143051147461e-01 1.814299964904785156e+01 0.000000000000000000e+00 -4.339999854564666748e-01 -5.499999970197677612e-02 1.791799926757812500e+01
1.758300018310546875e+01 0.000000000000000000e+00 0.000000000000000000e+00 -3.589999973773956299e-01 1.813599967956542969e+01 0.000000000000000000e+00 -4.339999854564666748e-01 -5.400000140070915222e-02 1.791099929809570312e+01
1.760400009155273438e+01 0.000000000000000000e+00 0.000000000000000000e+00 -3.600000143051147461e-01 1.815699958801269531e+01 0.000000000000000000e+00 -4.350000023841857910e-01 -5.499999970197677612e-02 1.793199920654296875e+01
1.768300056457519531e+01 0.000000000000000000e+00 0.000000000000000000e+00 -3.619999885559082031e-01 1.823900032043457031e+01 0.000000000000000000e+00 -4.359999895095825195e-01 -5.499999970197677612e-02 1.801199913024902344e+01
1.764999961853027344e+01 0.000000000000000000e+00 0.000000000000000000e+00 -3.610000014305114746e-01 1.820499992370605469e+01 0.000000000000000000e+00 -4.359999895095825195e-01 -5.499999970197677612e-02 1.797900009155273438e+01
1.759499931335449219e+01 0.000000000000000000e+00 0.000000000000000000e+00 -3.600000143051147461e-01 1.814800071716308594e+01 0.000000000000000000e+00 -4.339999854564666748e-01 -5.499999970197677612e-02 1.792300033569335938e+01
1.759900093078613281e+01 0.000000000000000000e+00 0.000000000000000000e+00 -3.600000143051147461e-01 1.815299987792968750e+01 0.000000000000000000e+00 -4.339999854564666748e-01 -5.499999970197677612e-02 1.792700004577636719e+01
1.767200088500976562e+01 0.000000000000000000e+00 0.000000000000000000e+00 -3.610000014305114746e-01 1.822800064086914062e+01 0.000000000000000000e+00 -4.359999895095825195e-01 -5.499999970197677612e-02 1.800099945068359375e+01
1.762199974060058594e+01 0.000000000000000000e+00 0.000000000000000000e+00 -3.600000143051147461e-01 1.817499923706054688e+01 0.000000000000000000e+00 -4.350000023841857910e-01 -5.499999970197677612e-02 1.795000076293945312e+01
1.758399963378906250e+01 0.000000000000000000e+00 0.000000000000000000e+00 -3.589999973773956299e-01 1.813699913024902344e+01 0.000000000000000000e+00 -4.339999854564666748e-01 -5.400000140070915222e-02 1.791200065612792969e+01
1.765600013732910156e+01 0.000000000000000000e+00 0.000000000000000000e+00 -3.610000014305114746e-01 1.821100044250488281e+01 0.000000000000000000e+00 -4.359999895095825195e-01 -5.499999970197677612e-02 1.798500061035156250e+01
1.760899925231933594e+01 0.000000000000000000e+00 0.000000000000000000e+00 -3.600000143051147461e-01 1.816300010681152344e+01 0.000000000000000000e+00 -4.350000023841857910e-01 -5.499999970197677612e-02 1.793700027465820312e+01
1.754299926757812500e+01 0.000000000000000000e+00 0.000000000000000000e+00 -3.589999973773956299e-01 1.809399986267089844e+01 0.000000000000000000e+00 -4.329999983310699463e-01 -5.400000140070915222e-02 1.787000083923339844e+01
1.760899925231933594e+01 0.000000000000000000e+00 0.000000000000000000e+00 -3.600000143051147461e-01 1.816300010681152344e+01 0.000000000000000000e+00 -4.350000023841857910e-01 -5.499999970197677612e-02 1.793700027465820312e+01
1.747299957275390625e+01 0.000000000000000000e+00 0.000000000000000000e+00 -3.569999933242797852e-01 1.802199935913085938e+01 0.000000000000000000e+00 -4.309999942779541016e-01 -5.400000140070915222e-02 1.779800033569335938e+01
1.759199905395507812e+01 0.000000000000000000e+00 0.000000000000000000e+00 -3.600000143051147461e-01 1.814500045776367188e+01 0.000000000000000000e+00 -4.339999854564666748e-01 -5.499999970197677612e-02 1.792000007629394531e+01
1.754100036621093750e+01 0.000000000000000000e+00 0.000000000000000000e+00 -3.589999973773956299e-01 1.809199905395507812e+01 0.000000000000000000e+00 -4.329999983310699463e-01 -5.400000140070915222e-02 1.786700057983398438e+01
1.735899925231933594e+01 0.000000000000000000e+00 0.000000000000000000e+00 -3.549999892711639404e-01 1.790500068664550781e+01 0.000000000000000000e+00 -4.289999902248382568e-01 -5.400000140070915222e-02 1.768199920654296875e+01
1.744000053405761719e+01 0.000000000000000000e+00 0.000000000000000000e+00 -3.569999933242797852e-01 1.798800086975097656e+01 0.000000000000000000e+00 -4.300000071525573730e-01 -5.400000140070915222e-02 1.776499938964843750e+01
1.770899963378906250e+01 0.000000000000000000e+00 0.000000000000000000e+00 -3.619999885559082031e-01 1.826600074768066406e+01 0.000000000000000000e+00 -4.370000064373016357e-01 -5.499999970197677612e-02 1.803899955749511719e+01
1.769199943542480469e+01 0.000000000000000000e+00 0.000000000000000000e+00 -3.619999885559082031e-01 1.824799919128417969e+01 0.000000000000000000e+00 -4.370000064373016357e-01 -5.499999970197677612e-02 1.802099990844726562e+01
1.770100021362304688e+01 0.000000000000000000e+00 0.000000000000000000e+00 -3.619999885559082031e-01 1.825699996948242188e+01 0.000000000000000000e+00 -4.370000064373016357e-01 -5.499999970197677612e-02 1.803000068664550781e+01
1.790999984741210938e+01 0.000000000000000000e+00 0.000000000000000000e+00 -3.659999966621398926e-01 1.847299957275390625e+01 0.000000000000000000e+00 -4.420000016689300537e-01 -5.600000172853469849e-02 1.824300003051757812e+01
1.806100082397460938e+01 0.000000000000000000e+00 0.000000000000000000e+00 -3.689999878406524658e-01 1.862800025939941406e+01 0.000000000000000000e+00 -4.460000097751617432e-01 -5.600000172853469849e-02 1.839699935913085938e+01
1.805699920654296875e+01 0.000000000000000000e+00 0.000000000000000000e+00 -3.689999878406524658e-01 1.862500000000000000e+01 0.000000000000000000e+00 -4.460000097751617432e-01 -5.600000172853469849e-02 1.839299964904785156e+01
1.797200012207031250e+01 0.000000000000000000e+00 0.000000000000000000e+00 -3.670000135898590088e-01 1.853700065612792969e+01 0.000000000000000000e+00 -4.440000057220458984e-01 -5.600000172853469849e-02 1.830599975585937500e+01
1.810799980163574219e+01 0.000000000000000000e+00 0.000000000000000000e+00 -3.700000047683715820e-01 1.867700004577636719e+01 0.000000000000000000e+00 -4.469999969005584717e-01 -5.600000172853469849e-02 1.844499969482421875e+01
1.810499954223632812e+01 0.000000000000000000e+00 0.000000000000000000e+00 -3.700000047683715820e-01 1.867399978637695312e+01 0.000000000000000000e+00 -4.469999969005584717e-01 -5.600000172853469849e-02 1.844199943542480469e+01
1.807500076293945312e+01 0.000000000000000000e+00 0.000000000000000000e+00 -3.700000047683715820e-01 1.864299964904785156e+01 0.000000000000000000e+00 -4.460000097751617432e-01 -5.600000172853469849e-02 1.841099929809570312e+01
1.814399909973144531e+01 0.000000000000000000e+00 0.000000000000000000e+00 -3.709999918937683105e-01 1.871400070190429688e+01 0.000000000000000000e+00 -4.480000138282775879e-01 -5.600000172853469849e-02 1.848200035095214844e+01
1.798800086975097656e+01 0.000000000000000000e+00 0.000000000000000000e+00 -3.680000007152557373e-01 1.855299949645996094e+01 0.000000000000000000e+00 -4.440000057220458984e-01 -5.600000172853469849e-02 1.832299995422363281e+01
1.800000000000000000e+01 0.000000000000000000e+00 0.000000000000000000e+00 -3.680000007152557373e-01 1.856500053405761719e+01 0.000000000000000000e+00 -4.440000057220458984e-01 -5.600000172853469849e-02 1.833499908447265625e+01
1.800200080871582031e+01 0.000000000000000000e+00 0.000000000000000000e+00 -3.680000007152557373e-01 1.856800079345703125e+01 0.000000000000000000e+00 -4.440000057220458984e-01 -5.600000172853469849e-02 1.833699989318847656e+01
1.830500030517578125e+01 0.000000000000000000e+00 0.000000000000000000e+00 -3.740000128746032715e-01 1.887999916076660156e+01 0.000000000000000000e+00 -4.519999921321868896e-01 -5.700000002980232239e-02 1.864599990844726562e+01
1.809399986267089844e+01 0.000000000000000000e+00 0.000000000000000000e+00 -3.700000047683715820e-01 1.866300010681152344e+01 0.000000000000000000e+00 -4.469999969005584717e-01 -5.600000172853469849e-02 1.843099975585937500e+01
1.821800041198730469e+01 0.000000000000000000e+00 0.000000000000000000e+00 -3.720000088214874268e-01 1.879100036621093750e+01 0.000000000000000000e+00 -4.499999880790710449e-01 -5.600000172853469849e-02 1.855699920654296875e+01
1.807699966430664062e+01 0.000000000000000000e+00 0.000000000000000000e+00 -3.700000047683715820e-01 1.864500045776367188e+01 0.000000000000000000e+00 -4.460000097751617432e-01 -5.600000172853469849e-02 1.841300010681152344e+01
1.811499977111816406e+01 0.000000000000000000e+00 0.000000000000000000e+00 -3.700000047683715820e-01 1.868499946594238281e+01 0.000000000000000000e+00 -4.469999969005584717e-01 -5.600000172853469849e-02 1.845299911499023438e+01
1.807699966430664062e+01 0.000000000000000000e+00 0.000000000000000000e+00 -3.700000047683715820e-01 1.864500045776367188e+01 0.000000000000000000e+00 -4.460000097751617432e-01 -5.600000172853469849e-02 1.841300010681152344e+01
1.806599998474121094e+01 0.000000000000000000e+00 0.000000000000000000e+00 -3.689999878406524658e-01 1.863299942016601562e+01 0.000000000000000000e+00 -4.460000097751617432e-01 -5.600000172853469849e-02 1.840200042724609375e+01
1.813899993896484375e+01 0.000000000000000000e+00 0.000000000000000000e+00 -3.709999918937683105e-01 1.870899963378906250e+01 0.000000000000000000e+00 -4.480000138282775879e-01 -5.600000172853469849e-02 1.847599983215332031e+01
1.823999977111816406e+01 0.000000000000000000e+00 0.000000000000000000e+00 -3.729999959468841553e-01 1.881399917602539062e+01 0.000000000000000000e+00 -4.499999880790710449e-01 -5.700000002980232239e-02 1.857999992370605469e+01
1.815200042724609375e+01 0.000000000000000000e+00 0.000000000000000000e+00 -3.709999918937683105e-01 1.872299957275390625e+01 0.000000000000000000e+00 -4.480000138282775879e-01 -5.600000172853469849e-02 1.848999977111816406e+01
1.803700065612792969e+01 0.000000000000000000e+00 0.000000000000000000e+00 -3.689999878406524658e-01 1.860400009155273438e+01 0.000000000000000000e+00 -4.449999928474426270e-01 -5.600000172853469849e-02 1.837299919128417969e+01
1.806100082397460938e+01 0.000000000000000000e+00 0.000000000000000000e+00 -3.689999878406524658e-01 1.862899971008300781e+01 0.000000000000000000e+00 -4.460000097751617432e-01 -5.600000172853469849e-02 1.839699935913085938e+01
1.808099937438964844e+01 0.000000000000000000e+00 0.000000000000000000e+00 -3.700000047683715820e-01 1.864900016784667969e+01 0.000000000000000000e+00 -4.460000097751617432e-01 -5.600000172853469849e-02 1.841699981689453125e+01
1.813500022888183594e+01 0.000000000000000000e+00 0.000000000000000000e+00 -3.709999918937683105e-01 1.870499992370605469e+01 0.000000000000000000e+00 -4.480000138282775879e-01 -5.600000172853469849e-02 1.847200012207031250e+01
1.814999961853027344e+01 0.000000000000000000e+00 0.000000000000000000e+00 -3.709999918937683105e-01 1.872100067138671875e+01 0.000000000000000000e+00 -4.480000138282775879e-01 -5.600000172853469849e-02 1.848800086975097656e+01
1.801000022888183594e+01 0.000000000000000000e+00 0.000000000000000000e+00 -3.680000007152557373e-01 1.857600021362304688e+01 0.000000000000000000e+00 -4.449999928474426270e-01 -5.600000172853469849e-02 1.834499931335449219e+01
1.796199989318847656e+01 0.000000000000000000e+00 0.000000000000000000e+00 -3.670000135898590088e-01 1.852599906921386719e+01 0.000000000000000000e+00 -4.429999887943267822e-01 -5.600000172853469849e-02 1.829599952697753906e+01
1.820400047302246094e+01 0.000000000000000000e+00 0.000000000000000000e+00 -3.720000088214874268e-01 1.877599906921386719e+01 0.000000000000000000e+00 -4.490000009536743164e-01 -5.600000172853469849e-02 1.854299926757812500e+01
1.720599937438964844e+01 0.000000000000000000e+00 0.000000000000000000e+00 -4.600000083446502686e-01 1.767000007629394531e+01 0.000000000000000000e+00 2.000000094994902611e-03 -2.720000147819519043e-01 1.795499992370605469e+01
1.711599922180175781e+01 0.000000000000000000e+00 0.000000000000000000e+00 -4.580000042915344238e-01 1.757799911499023438e+01 0.000000000000000000e+00 2.000000094994902611e-03 -2.700000107288360596e-01 1.786199951171875000e+01
1.721699905395507812e+01 0.000000000000000000e+00 0.000000000000000000e+00 -4.600000083446502686e-01 1.768199920654296875e+01 0.000000000000000000e+00 2.000000094994902611e-03 -2.720000147819519043e-01 1.796699905395507812e+01
1.722200012207031250e+01 0.000000000000000000e+00 0.000000000000000000e+00 -4.600000083446502686e-01 1.768700027465820312e+01 0.000000000000000000e+00 2.000000094994902611e-03 -2.720000147819519043e-01 1.797299957275390625e+01
1.719599914550781250e+01 0.000000000000000000e+00 0.000000000000000000e+00 -4.600000083446502686e-01 1.765999984741210938e+01 0.000000000000000000e+00 2.000000094994902611e-03 -2.709999978542327881e-01 1.794599914550781250e+01
1.723999977111816406e+01 0.000000000000000000e+00 0.000000000000000000e+00 -4.609999954700469971e-01 1.770499992370605469e+01 0.000000000000000000e+00 2.000000094994902611e-03 -2.720000147819519043e-01 1.799099922180175781e+01
1.722100067138671875e+01 0.000000000000000000e+00 0.000000000000000000e+00 -4.600000083446502686e-01 1.768600082397460938e+01 0.000000000000000000e+00 2.000000094994902611e-03 -2.720000147819519043e-01 1.797100067138671875e+01
1.714500045776367188e+01 0.000000000000000000e+00 0.000000000000000000e+00 -4.580000042915344238e-01 1.760799980163574219e+01 0.000000000000000000e+00 2.000000094994902611e-03 -2.709999978542327881e-01 1.789200019836425781e+01
1.721299934387207031e+01 0.000000000000000000e+00 0.000000000000000000e+00 -4.600000083446502686e-01 1.767799949645996094e+01 0.000000000000000000e+00 2.000000094994902611e-03 -2.720000147819519043e-01 1.796299934387207031e+01
1.713800048828125000e+01 0.000000000000000000e+00 0.000000000000000000e+00 -4.580000042915344238e-01 1.760000038146972656e+01 0.000000000000000000e+00 2.000000094994902611e-03 -2.700000107288360596e-01 1.788500022888183594e+01
1.720100021362304688e+01 0.000000000000000000e+00 0.000000000000000000e+00 -4.600000083446502686e-01 1.766600036621093750e+01 0.000000000000000000e+00 2.000000094994902611e-03 -2.709999978542327881e-01 1.795100021362304688e+01
1.720199966430664062e+01 0.000000000000000000e+00 0.000000000000000000e+00 -4.600000083446502686e-01 1.766600036621093750e+01 0.000000000000000000e+00 2.000000094994902611e-03 -2.709999978542327881e-01 1.795100021362304688e+01
1.719000053405761719e+01 0.000000000000000000e+00 0.000000000000000000e+00 -4.600000083446502686e-01 1.765399932861328125e+01 0.000000000000000000e+00 2.000000094994902611e-03 -2.709999978542327881e-01 1.793899917602539062e+01
1.717000007629394531e+01 0.000000000000000000e+00 0.000000000000000000e+00 -4.589999914169311523e-01 1.763299942016601562e+01 0.000000000000000000e+00 2.000000094994902611e-03 -2.709999978542327881e-01 1.791799926757812500e+01
1.720700073242187500e+01 0.000000000000000000e+00 0.000000000000000000e+00 -4.600000083446502686e-01 1.767099952697753906e+01 0.000000000000000000e+00 2.000000094994902611e-03 -2.720000147819519043e-01 1.795700073242187500e+01
1.714399909973144531e+01 0.000000000000000000e+00 0.000000000000000000e+00 -4.580000042915344238e-01 1.760600090026855469e+01 0.000000000000000000e+00 2.000000094994902611e-03 -2.709999978542327881e-01 1.789100074768066406e+01
1.723999977111816406e+01 0.000000000000000000e+00 0.000000000000000000e+00 -4.609999954700469971e-01 1.770499992370605469e+01 0.000000000000000000e+00 2.000000094994902611e-03 -2.720000147819519043e-01 1.799099922180175781e+01
1.714699935913085938e+01 0.000000000000000000e+00 0.000000000000000000e+00 -4.580000042915344238e-01 1.761000061035156250e+01 0.000000000000000000e+00 2.000000094994902611e-03 -2.709999978542327881e-01 1.789399909973144531e+01
1.724200057983398438e+01 0.000000000000000000e+00 0.000000000000000000e+00 -4.609999954700469971e-01 1.770700073242187500e+01 0.000000000000000000e+00 2.000000094994902611e-03 -2.720000147819519043e-01 1.799300003051757812e+01
1.712500000000000000e+01 0.000000000000000000e+00 0.000000000000000000e+00 -4.580000042915344238e-01 1.758699989318847656e+01 0.000000000000000000e+00 2.000000094994902611e-03 -2.700000107288360596e-01 1.787100028991699219e+01
1.718700027465820312e+01 0.000000000000000000e+00 0.000000000000000000e+00 -4.600000083446502686e-01 1.765099906921386719e+01 0.000000000000000000e+00 2.000000094994902611e-03 -2.709999978542327881e-01 1.793600082397460938e+01
1.712999916076660156e+01 0.000000000000000000e+00 0.000000000000000000e+00 -4.580000042915344238e-01 1.759199905395507812e+01 0.000000000000000000e+00 2.000000094994902611e-03 -2.700000107288360596e-01 1.787700080871582031e+01