-6.089221875000000000e+04
-6.088117578125000000e+04
-6.088105859375000000e+04
-6.087885937500000000e+04
-6.087832031250000000e+04
-6.087875390625000000e+04
-6.087858593750000000e+04
-6.087945703125000000e+04
-6.088012109375000000e+04
-6.087933593750000000e+04
-6.087876562500000000e+04
-6.087947265625000000e+04
-6.087998437500000000e+04
-6.087890625000000000e+04
-6.087954687500000000e+04
-6.088006250000000000e+04
-6.088019921875000000e+04
-6.087927734375000000e+04
-6.087895703125000000e+04
-6.088064453125000000e+04
-6.088033203125000000e+04
-6.087961718750000000e+04
-6.087936328125000000e+04
-6.087976953125000000e+04
-6.087998828125000000e+04
-6.088019140625000000e+04
-6.088007031250000000e+04
-6.087937500000000000e+04
-6.087889062500000000e+04
-6.088053515625000000e+04
-6.088020312500000000e+04
-6.087994531250000000e+04
-6.087911328125000000e+04
-6.087863671875000000e+04
-6.087961718750000000e+04
-6.088093750000000000e+04
-6.087989062500000000e+04
-6.087961718750000000e+04
-6.087857421875000000e+04
-6.087901171875000000e+04
-6.087804296875000000e+04
-6.088028906250000000e+04
-6.087958984375000000e+04
-6.087959765625000000e+04
-6.089221875000000000e+04
-6.087215234375000000e+04
-6.087036328125000000e+04
-6.086518750000000000e+04
-6.086439843750000000e+04
-6.086276171875000000e+04
-6.086279687500000000e+04
-6.086375000000000000e+04
-6.086350000000000000e+04
-6.086245703125000000e+04
-6.086004687500000000e+04
-6.086385156250000000e+04
-6.086251171875000000e+04
-6.086382421875000000e+04
-6.086442578125000000e+04
-6.086323046875000000e+04
-6.086276171875000000e+04
-6.086108984375000000e+04
-6.086091406250000000e+04
-6.086260546875000000e+04
-6.086298437500000000e+04
-6.086351562500000000e+04
-6.086430859375000000e+04
-6.086392578125000000e+04
-6.086222656250000000e+04
-6.086237890625000000e+04
-6.086423828125000000e+04
-6.086359375000000000e+04
-6.086432812500000000e+04
-6.086249218750000000e+04
-6.086506640625000000e+04
-6.089221875000000000e+04
-6.086782031250000000e+04
-6.086262500000000000e+04
-6.085499609375000000e+04
-6.085437500000000000e+04
-6.084666015625000000e+04
-6.084126562500000000e+04
-6.083698828125000000e+04
-6.084519921875000000e+04
-6.084432421875000000e+04
-6.084314062500000000e+04
-6.083792968750000000e+04
-6.083873437500000000e+04
-6.084131250000000000e+04
-6.084542968750000000e+04
-6.084372265625000000e+04
-6.083896875000000000e+04
-6.084253515625000000e+04
-6.083613671875000000e+04
-6.083513281250000000e+04
-6.084023828125000000e+04
-6.083879687500000000e+04
-6.084079296875000000e+04
-6.083713671875000000e+04
-6.083817578125000000e+04
-6.083617578125000000e+04
-6.083716406250000000e+04
-6.083674218750000000e+04
-6.083787109375000000e+04
-6.083828515625000000e+04
-6.083994921875000000e+04
-6.084110156250000000e+04
-6.083905859375000000e+04
-6.083510937500000000e+04
-6.089201171875000000e+04
-6.088112109375000000e+04
-6.088058593750000000e+04
-6.087919921875000000e+04
-6.087826562500000000e+04
-6.087751953125000000e+04
-6.087823828125000000e+04
-6.087925781250000000e+04
-6.088034375000000000e+04
-6.087915625000000000e+04
-6.087887890625000000e+04
-6.087849609375000000e+04
-6.087835156250000000e+04
-6.087961718750000000e+04
-6.087903906250000000e+04
-6.087920703125000000e+04
-6.087815234375000000e+04
-6.087885156250000000e+04
-6.087797656250000000e+04
-6.088017968750000000e+04
-6.087935156250000000e+04
-6.088010546875000000e+04
-6.087928515625000000e+04
-6.087870312500000000e+04
-6.087983203125000000e+04
-6.087866796875000000e+04
-6.088010937500000000e+04
-6.087963281250000000e+04
-6.087980468750000000e+04
-6.088037500000000000e+04
-6.087924218750000000e+04
-6.087816796875000000e+04
-6.087861718750000000e+04
-6.087859765625000000e+04
-6.087876953125000000e+04
-6.087822656250000000e+04
-6.087906640625000000e+04
-6.087830078125000000e+04
-6.088007421875000000e+04
-6.087955859375000000e+04
-6.087818750000000000e+04
-6.087917968750000000e+04
-6.087948046875000000e+04
-6.089201171875000000e+04
-6.087412500000000000e+04
-6.087166015625000000e+04
-6.087068359375000000e+04
-6.086675000000000000e+04
-6.086444140625000000e+04
-6.086237890625000000e+04
-6.086303125000000000e+04
-6.086408593750000000e+04
-6.086594921875000000e+04
-6.086604296875000000e+04
-6.086526171875000000e+04
-6.086250390625000000e+04
-6.086113671875000000e+04
-6.086280078125000000e+04
-6.086451562500000000e+04
-6.086390234375000000e+04
-6.086316015625000000e+04
-6.086344140625000000e+04
-6.086169531250000000e+04
-6.086187500000000000e+04
-6.086155078125000000e+04
-6.086216796875000000e+04
-6.086118359375000000e+04
-6.086111718750000000e+04
-6.086463671875000000e+04
-6.086141796875000000e+04
-6.086317968750000000e+04
-6.086437890625000000e+04
-6.086404687500000000e+04
-6.086244140625000000e+04
-6.086058984375000000e+04
-6.086319921875000000e+04
-6.085792578125000000e+04
-6.086171875000000000e+04
-6.086153515625000000e+04
-6.086612109375000000e+04
-6.086412109375000000e+04
-6.089201171875000000e+04
-6.086606250000000000e+04
-6.086202734375000000e+04
-6.085963671875000000e+04
-6.085316796875000000e+04
-6.084621093750000000e+04
-6.084207421875000000e+04
-6.083978125000000000e+04
-6.084179687500000000e+04
-6.084202343750000000e+04
-6.084312500000000000e+04
-6.084103515625000000e+04
-6.084161718750000000e+04
-6.084160156250000000e+04
-6.084182421875000000e+04
-6.084243750000000000e+04
-6.083983203125000000e+04
-6.084014843750000000e+04
-6.083849609375000000e+04
-6.083967187500000000e+04
-6.083989843750000000e+04
-6.084143359375000000e+04
-6.084014453125000000e+04
-6.084179296875000000e+04
-6.084377343750000000e+04
-6.084580859375000000e+04
-6.084299218750000000e+04
-6.084007031250000000e+04
-6.084066796875000000e+04
-6.084282421875000000e+04
-6.084256250000000000e+04
-6.084162109375000000e+04
-6.084339843750000000e+04
-6.084625000000000000e+04
-6.084543359375000000e+04
-6.083906640625000000e+04
-6.084102343750000000e+04
-6.084094140625000000e+04
-6.084341015625000000e+04
-6.084300000000000000e+04
-6.083973828125000000e+04
-6.084026953125000000e+04
-6.083953125000000000e+04
-6.089219140625000000e+04
-6.088199609375000000e+04
-6.088215625000000000e+04
-6.087921484375000000e+04
-6.087929296875000000e+04
-6.087969531250000000e+04
-6.087995312500000000e+04
-6.088003906250000000e+04
-6.087921484375000000e+04
-6.088009375000000000e+04
-6.087912500000000000e+04
-6.087962890625000000e+04
-6.087940234375000000e+04
-6.088001171875000000e+04
-6.088094140625000000e+04
-6.087810156250000000e+04
-6.087840234375000000e+04
-6.087893359375000000e+04
-6.087964453125000000e+04
-6.087962109375000000e+04
-6.087999218750000000e+04
-6.087890625000000000e+04
-6.087874218750000000e+04
-6.087962109375000000e+04
-6.087928515625000000e+04
-6.088032421875000000e+04
-6.087991015625000000e+04
-6.087992968750000000e+04
-6.087871875000000000e+04
-6.087825000000000000e+04
-6.087878125000000000e+04
-6.087885937500000000e+04
-6.087848437500000000e+04
-6.087746093750000000e+04
-6.087833203125000000e+04
-6.087910937500000000e+04
-6.087960546875000000e+04
-6.087939843750000000e+04
-6.087877734375000000e+04
-6.087942968750000000e+04
-6.089219140625000000e+04
-6.087440234375000000e+04
-6.086788671875000000e+04
-6.086704687500000000e+04
-6.086188671875000000e+04
-6.086077734375000000e+04
-6.086176171875000000e+04
-6.086371484375000000e+04
-6.086458984375000000e+04
-6.086465625000000000e+04
-6.086234375000000000e+04
-6.086165625000000000e+04
-6.086244140625000000e+04
-6.086481640625000000e+04
-6.086346875000000000e+04
-6.086285156250000000e+04
-6.086033593750000000e+04
-6.086251562500000000e+04
-6.086477734375000000e+04
-6.086359765625000000e+04
-6.086398437500000000e+04
-6.086389843750000000e+04
-6.086095312500000000e+04
-6.086012890625000000e+04
-6.086171093750000000e+04
-6.086631640625000000e+04
-6.086480859375000000e+04
-6.086266015625000000e+04
-6.086009375000000000e+04
-6.086149218750000000e+04
-6.086339843750000000e+04
-6.086610156250000000e+04
-6.086296093750000000e+04
-6.085847656250000000e+04
-6.086050390625000000e+04
-6.089219140625000000e+04
-6.086757421875000000e+04
-6.085993750000000000e+04
-6.085336328125000000e+04
-6.084683984375000000e+04
-6.084428125000000000e+04
-6.084255468750000000e+04
-6.084194531250000000e+04
-6.084674218750000000e+04
-6.084423828125000000e+04
-6.084452734375000000e+04
-6.084013281250000000e+04
-6.084080468750000000e+04
-6.084374218750000000e+04
-6.084274609375000000e+04
-6.084312500000000000e+04
-6.084494531250000000e+04
-6.084343750000000000e+04
-6.084321093750000000e+04
-6.084171093750000000e+04
-6.083678515625000000e+04
-6.084236328125000000e+04
-6.084380859375000000e+04
-6.084489843750000000e+04
-6.084396484375000000e+04
-6.084306250000000000e+04
-6.084423046875000000e+04
-6.084100390625000000e+04
-6.084023437500000000e+04
-6.083760937500000000e+04
-6.083546484375000000e+04
-6.083708203125000000e+04
-6.083836718750000000e+04
-6.084084765625000000e+04
-6.084064453125000000e+04
-6.083835546875000000e+04
-6.083989062500000000e+04
-6.084068750000000000e+04
-6.084323828125000000e+04
-6.084507031250000000e+04
-6.084401171875000000e+04
-6.089325390625000000e+04
-6.088158984375000000e+04
-6.088112500000000000e+04
-6.087989453125000000e+04
-6.087854687500000000e+04
-6.087957812500000000e+04
-6.087917578125000000e+04
-6.087962109375000000e+04
-6.087869531250000000e+04
-6.087844921875000000e+04
-6.087804296875000000e+04
-6.087809765625000000e+04
-6.087912109375000000e+04
-6.087971875000000000e+04
-6.087922656250000000e+04
-6.087899609375000000e+04
-6.088024218750000000e+04
-6.087925000000000000e+04
-6.087994531250000000e+04
-6.087935546875000000e+04
-6.088016015625000000e+04
-6.087877734375000000e+04
-6.087850390625000000e+04
-6.087959375000000000e+04
-6.087864453125000000e+04
-6.088008984375000000e+04
-6.088123046875000000e+04
-6.088125390625000000e+04
-6.087903515625000000e+04
-6.087906250000000000e+04
-6.088007812500000000e+04
-6.087912890625000000e+04
-6.088057031250000000e+04
-6.088044921875000000e+04
-6.087877734375000000e+04
-6.087847656250000000e+04
-6.087935156250000000e+04
-6.088021875000000000e+04
-6.087904687500000000e+04
-6.087903125000000000e+04
-6.087983593750000000e+04
-6.087832031250000000e+04
-6.089325390625000000e+04
-6.087447656250000000e+04
-6.087241406250000000e+04
-6.086925000000000000e+04
-6.086767187500000000e+04
-6.086405468750000000e+04
-6.086314843750000000e+04
-6.086287890625000000e+04
-6.086122656250000000e+04
-6.086458593750000000e+04
-6.086391796875000000e+04
-6.086433984375000000e+04
-6.086275390625000000e+04
-6.086342578125000000e+04
-6.086435546875000000e+04
-6.086341015625000000e+04
-6.086357031250000000e+04
-6.086260156250000000e+04
-6.086416796875000000e+04
-6.086385937500000000e+04
-6.086254687500000000e+04
-6.086173437500000000e+04
-6.086343359375000000e+04
-6.086580859375000000e+04
-6.086332812500000000e+04
-6.086494921875000000e+04
-6.086320312500000000e+04
-6.086218750000000000e+04
-6.086201171875000000e+04
-6.086335546875000000e+04
-6.086506250000000000e+04
-6.086232812500000000e+04
-6.086353125000000000e+04
-6.085911718750000000e+04
-6.086294531250000000e+04
-6.086345312500000000e+04
-6.086160546875000000e+04
-6.086385546875000000e+04
-6.089325390625000000e+04
-6.086633203125000000e+04
-6.085675781250000000e+04
-6.085501953125000000e+04
-6.084587890625000000e+04
-6.084344140625000000e+04
-6.083985156250000000e+04
-6.084443359375000000e+04
-6.084306640625000000e+04
-6.084060937500000000e+04
-6.084249609375000000e+04
-6.084582031250000000e+04
-6.084501953125000000e+04
-6.084317968750000000e+04
-6.084302343750000000e+04
-6.083991796875000000e+04
-6.084401562500000000e+04
-6.084074609375000000e+04
-6.083880468750000000e+04
-6.084093750000000000e+04
-6.084273828125000000e+04
-6.084072656250000000e+04
-6.084005078125000000e+04
-6.084224609375000000e+04
-6.083902734375000000e+04
-6.084271093750000000e+04
-6.084252734375000000e+04
-6.084366406250000000e+04
-6.084289062500000000e+04
-6.084128515625000000e+04
-6.084249218750000000e+04
-6.083980468750000000e+04
-6.089408984375000000e+04
-6.088280859375000000e+04
-6.088127734375000000e+04
-6.087866406250000000e+04
-6.087934375000000000e+04
-6.087973437500000000e+04
-6.088048046875000000e+04
-6.087910156250000000e+04
-6.087809765625000000e+04
-6.087971484375000000e+04
-6.087953515625000000e+04
-6.087932812500000000e+04
-6.087928125000000000e+04
-6.088054296875000000e+04
-6.088075000000000000e+04
-6.087971484375000000e+04
-6.088017578125000000e+04
-6.087968750000000000e+04
-6.087474218750000000e+04
-6.088039062500000000e+04
-6.088100390625000000e+04
-6.087992968750000000e+04
-6.087930468750000000e+04
-6.087976953125000000e+04
-6.087869531250000000e+04
-6.088028515625000000e+04
-6.087938281250000000e+04
-6.087974609375000000e+04
-6.087901562500000000e+04
-6.088003906250000000e+04
-6.088068359375000000e+04
-6.088166015625000000e+04
-6.088099609375000000e+04
-6.088053515625000000e+04
-6.087942578125000000e+04
-6.087997265625000000e+04
-6.087967578125000000e+04
-6.088032421875000000e+04
-6.089408593750000000e+04
-6.087653906250000000e+04
-6.087137109375000000e+04
-6.086966796875000000e+04
-6.086526171875000000e+04
-6.086232812500000000e+04
-6.086233593750000000e+04
-6.086218750000000000e+04
-6.086665234375000000e+04
-6.086492187500000000e+04
-6.086138281250000000e+04
-6.086358593750000000e+04
-6.086208984375000000e+04
-6.086241796875000000e+04
-6.086161328125000000e+04
-6.086217578125000000e+04
-6.086191796875000000e+04
-6.086150000000000000e+04
-6.086392187500000000e+04
-6.086285156250000000e+04
-6.086211718750000000e+04
-6.085976171875000000e+04
-6.086231250000000000e+04
-6.086380078125000000e+04
-6.086289062500000000e+04
-6.086385546875000000e+04
-6.085998828125000000e+04
-6.086426171875000000e+04
-6.086431640625000000e+04
-6.086559765625000000e+04
-6.086558203125000000e+04
-6.086463671875000000e+04
-6.086362500000000000e+04
-6.086409375000000000e+04
-6.086421093750000000e+04
-6.086330078125000000e+04
-6.086370312500000000e+04
-6.086553515625000000e+04
-6.086599609375000000e+04
-6.086530468750000000e+04
-6.089408593750000000e+04
-6.086661718750000000e+04
-6.086545312500000000e+04
-6.085854296875000000e+04
-6.085163281250000000e+04
-6.084674609375000000e+04
-6.084441796875000000e+04
-6.084162890625000000e+04
-6.084225000000000000e+04
-6.084407421875000000e+04
-6.084368750000000000e+04
-6.084447656250000000e+04
-6.084387890625000000e+04
-6.084317578125000000e+04
-6.084193750000000000e+04
-6.084355078125000000e+04
-6.084227343750000000e+04
-6.084088281250000000e+04
-6.084028515625000000e+04
-6.084367187500000000e+04
-6.084239062500000000e+04
-6.084244921875000000e+04
-6.083869531250000000e+04
-6.083702343750000000e+04
-6.083991406250000000e+04
-6.083967187500000000e+04
-6.084258593750000000e+04
-6.083949609375000000e+04
-6.084016015625000000e+04
-6.083917187500000000e+04
-6.084514062500000000e+04
-6.084526171875000000e+04
-6.084342968750000000e+04
-6.084156640625000000e+04
-6.084357031250000000e+04
-6.083801953125000000e+04
-6.083887500000000000e+04
-6.084059375000000000e+04
-6.084077343750000000e+04
-6.084273828125000000e+04
-6.084332031250000000e+04
-6.084329687500000000e+04
-6.083890625000000000e+04
-6.089226953125000000e+04
-6.088248046875000000e+04
-6.088119140625000000e+04
-6.087867968750000000e+04
-6.087785937500000000e+04
-6.087813671875000000e+04
-6.087967187500000000e+04
-6.087922265625000000e+04
-6.087821875000000000e+04
-6.087742187500000000e+04
-6.087975000000000000e+04
-6.087923828125000000e+04
-6.087823437500000000e+04
-6.087868750000000000e+04
-6.087854687500000000e+04
-6.087789062500000000e+04
-6.087953125000000000e+04
-6.087780468750000000e+04
-6.087876562500000000e+04
-6.087872265625000000e+04
-6.087930859375000000e+04
-6.087865234375000000e+04
-6.087874218750000000e+04
-6.087943750000000000e+04
-6.087913281250000000e+04
-6.087744140625000000e+04
-6.087819921875000000e+04
-6.087948046875000000e+04
-6.087739062500000000e+04
-6.087680468750000000e+04
-6.087801562500000000e+04
-6.087908984375000000e+04
-6.087787109375000000e+04
-6.087702734375000000e+04
-6.087701171875000000e+04
-6.089226562500000000e+04
-6.087506640625000000e+04
-6.087298046875000000e+04
-6.086855078125000000e+04
-6.086536328125000000e+04
-6.086512890625000000e+04
-6.085996484375000000e+04
-6.086221875000000000e+04
-6.086174609375000000e+04
-6.086190625000000000e+04
-6.086216796875000000e+04
-6.086242187500000000e+04
-6.086330078125000000e+04
-6.086517187500000000e+04
-6.086427734375000000e+04
-6.086244531250000000e+04
-6.085903515625000000e+04
-6.086139453125000000e+04
-6.086414062500000000e+04
-6.086384375000000000e+04
-6.086239453125000000e+04
-6.086310937500000000e+04
-6.086261328125000000e+04
-6.086134375000000000e+04
-6.086122656250000000e+04
-6.086256250000000000e+04
-6.086052734375000000e+04
-6.085920703125000000e+04
-6.086140234375000000e+04
-6.086505078125000000e+04
-6.086406640625000000e+04
-6.086348046875000000e+04
-6.086469140625000000e+04
-6.086530468750000000e+04
-6.086611328125000000e+04
-6.086602734375000000e+04
-6.086306250000000000e+04
-6.089226953125000000e+04
-6.086830859375000000e+04
-6.086352343750000000e+04
-6.085900781250000000e+04
-6.085285937500000000e+04
-6.084790625000000000e+04
-6.084478515625000000e+04
-6.083749609375000000e+04
-6.084152734375000000e+04
-6.084531640625000000e+04
-6.084294531250000000e+04
-6.084168750000000000e+04
-6.084214062500000000e+04
-6.083813671875000000e+04
-6.084130859375000000e+04
-6.084085156250000000e+04
-6.084095703125000000e+04
-6.084296875000000000e+04
-6.084153906250000000e+04
-6.083807421875000000e+04
-6.083852343750000000e+04
-6.084347265625000000e+04
-6.084287500000000000e+04
-6.084091015625000000e+04
-6.084007421875000000e+04
-6.083919921875000000e+04
-6.083960156250000000e+04
-6.084475000000000000e+04
-6.084460156250000000e+04
-6.084277734375000000e+04
-6.084680859375000000e+04
-6.084417968750000000e+04
-6.084171093750000000e+04
-6.083873046875000000e+04
-6.089169140625000000e+04
-6.088266015625000000e+04
-6.088019531250000000e+04
-6.087973437500000000e+04
-6.087818750000000000e+04
-6.087741015625000000e+04
-6.087962109375000000e+04
-6.087895703125000000e+04
-6.087965625000000000e+04
-6.087871093750000000e+04
-6.087808984375000000e+04
-6.087778906250000000e+04
-6.087756640625000000e+04
-6.087858593750000000e+04
-6.087904687500000000e+04
-6.087837109375000000e+04
-6.087800390625000000e+04
-6.087763281250000000e+04
-6.087861718750000000e+04
-6.087617968750000000e+04
-6.087739062500000000e+04
-6.087754687500000000e+04
-6.087760937500000000e+04
-6.087655468750000000e+04
-6.087569140625000000e+04
-6.087566015625000000e+04
-6.087696093750000000e+04
-6.087757421875000000e+04
-6.087714843750000000e+04
-6.087670703125000000e+04
-6.087658203125000000e+04
-6.087759375000000000e+04
-6.087794140625000000e+04
-6.087716796875000000e+04
-6.087685156250000000e+04
-6.087766015625000000e+04
-6.087853515625000000e+04
-6.087742187500000000e+04
-6.087736718750000000e+04
-6.087692968750000000e+04
-6.087693359375000000e+04
-6.089169140625000000e+04
-6.087451562500000000e+04
-6.087333593750000000e+04
-6.086773046875000000e+04
-6.086421093750000000e+04
-6.086277343750000000e+04
-6.086155078125000000e+04
-6.086172656250000000e+04
-6.086336328125000000e+04
-6.086334375000000000e+04
-6.086451953125000000e+04
-6.086342968750000000e+04
-6.086117968750000000e+04
-6.086233203125000000e+04
-6.086335546875000000e+04
-6.086225781250000000e+04
-6.086264453125000000e+04
-6.086277734375000000e+04
-6.086325000000000000e+04
-6.086121875000000000e+04
-6.086519921875000000e+04
-6.086356640625000000e+04
-6.086009375000000000e+04
-6.086235156250000000e+04
-6.086289843750000000e+04
-6.086132421875000000e+04
-6.086213281250000000e+04
-6.086222656250000000e+04
-6.086435937500000000e+04
-6.086339843750000000e+04
-6.086470312500000000e+04
-6.086373437500000000e+04
-6.086099609375000000e+04
-6.086364843750000000e+04
-6.086264843750000000e+04
-6.089169140625000000e+04
-6.086782812500000000e+04
-6.086121875000000000e+04
-6.085835546875000000e+04
-6.084773046875000000e+04
-6.084304687500000000e+04
-6.083945703125000000e+04
-6.084113281250000000e+04
-6.084280859375000000e+04
-6.084113281250000000e+04
-6.084271484375000000e+04
-6.084378125000000000e+04
-6.084361718750000000e+04
-6.084028125000000000e+04
-6.083717968750000000e+04
-6.084173437500000000e+04
-6.084210937500000000e+04
-6.084480859375000000e+04
-6.084351562500000000e+04
-6.084259375000000000e+04
-6.083851953125000000e+04
-6.084072265625000000e+04
-6.084623437500000000e+04
-6.084215234375000000e+04
-6.084189453125000000e+04
-6.084280078125000000e+04
-6.084099218750000000e+04
-6.083780859375000000e+04
-6.083777734375000000e+04
-6.084070703125000000e+04
-6.083895312500000000e+04
-6.089291796875000000e+04
-6.088241406250000000e+04
-6.088075390625000000e+04
-6.087870312500000000e+04
-6.087930859375000000e+04
-6.087783203125000000e+04
-6.088013281250000000e+04
-6.087974218750000000e+04
-6.087838281250000000e+04
-6.087891406250000000e+04
-6.087784765625000000e+04
-6.087744921875000000e+04
-6.087796484375000000e+04
-6.087837500000000000e+04
-6.087709375000000000e+04
-6.087646484375000000e+04
-6.087752734375000000e+04
-6.087731250000000000e+04
-6.087786718750000000e+04
-6.087860937500000000e+04
-6.087996484375000000e+04
-6.087981640625000000e+04
-6.087864062500000000e+04
-6.087950390625000000e+04
-6.087940625000000000e+04
-6.087818359375000000e+04
-6.087885546875000000e+04
-6.087884765625000000e+04
-6.087945312500000000e+04
-6.087965234375000000e+04
-6.087900390625000000e+04
-6.087967187500000000e+04
-6.087961328125000000e+04
-6.087909375000000000e+04
-6.087843750000000000e+04
-6.087780468750000000e+04
-6.087949609375000000e+04
-6.087830859375000000e+04
-6.087913671875000000e+04
-6.087947656250000000e+04
-6.087995312500000000e+04
-6.088020703125000000e+04
-6.087918359375000000e+04
-6.089291796875000000e+04
-6.087474609375000000e+04
-6.087218750000000000e+04
-6.086867187500000000e+04
-6.086517578125000000e+04
-6.086157812500000000e+04
-6.086181250000000000e+04
-6.086032031250000000e+04
-6.086318750000000000e+04
-6.086389062500000000e+04
-6.086334375000000000e+04
-6.086184765625000000e+04
-6.086085546875000000e+04
-6.086189062500000000e+04
-6.086313671875000000e+04
-6.086235937500000000e+04
-6.086211718750000000e+04
-6.086179687500000000e+04
-6.086077343750000000e+04
-6.085994531250000000e+04
-6.085904296875000000e+04
-6.086114843750000000e+04
-6.086240234375000000e+04
-6.085859765625000000e+04
-6.086222656250000000e+04
-6.086356250000000000e+04
-6.086431250000000000e+04
-6.086249218750000000e+04
-6.086184375000000000e+04
-6.086260546875000000e+04
-6.086158984375000000e+04
-6.086067187500000000e+04
-6.086237109375000000e+04
-6.086231640625000000e+04
-6.086302734375000000e+04
-6.086204296875000000e+04
-6.086078906250000000e+04
-6.089291796875000000e+04
-6.086698437500000000e+04
-6.085813281250000000e+04
-6.085314062500000000e+04
-6.084788671875000000e+04
-6.084432031250000000e+04
-6.084346093750000000e+04
-6.084448046875000000e+04
-6.084593750000000000e+04
-6.084492187500000000e+04
-6.084332812500000000e+04
-6.084242578125000000e+04
-6.083754687500000000e+04
-6.083617968750000000e+04
-6.083974609375000000e+04
-6.084058203125000000e+04
-6.084309765625000000e+04
-6.084323046875000000e+04
-6.083803906250000000e+04
-6.083839453125000000e+04
-6.083944140625000000e+04
-6.083677734375000000e+04
-6.083867578125000000e+04
-6.083870312500000000e+04
-6.084459765625000000e+04
-6.084082421875000000e+04
-6.083757031250000000e+04
-6.083671484375000000e+04
-6.083915234375000000e+04
-6.084064453125000000e+04
-6.083973437500000000e+04
-6.083814843750000000e+04
-6.084037500000000000e+04
-6.083800390625000000e+04
-6.083783593750000000e+04
-6.084140234375000000e+04
-6.083867578125000000e+04
-6.089139453125000000e+04
-6.088088671875000000e+04
-6.087972265625000000e+04
-6.087855468750000000e+04
-6.087749218750000000e+04
-6.087803515625000000e+04
-6.087801953125000000e+04
-6.087941406250000000e+04
-6.087825781250000000e+04
-6.087823046875000000e+04
-6.087885937500000000e+04
-6.087871484375000000e+04
-6.087916015625000000e+04
-6.087954296875000000e+04
-6.087887109375000000e+04
-6.087831640625000000e+04
-6.087844140625000000e+04
-6.087840625000000000e+04
-6.087898828125000000e+04
-6.088063671875000000e+04
-6.087444140625000000e+04
-6.087891406250000000e+04
-6.087920312500000000e+04
-6.087957421875000000e+04
-6.087882812500000000e+04
-6.087873437500000000e+04
-6.087742187500000000e+04
-6.087839062500000000e+04
-6.087964843750000000e+04
-6.087853906250000000e+04
-6.087932812500000000e+04
-6.087866406250000000e+04
-6.087962500000000000e+04
-6.087891406250000000e+04
-6.087883203125000000e+04
-6.087908203125000000e+04
-6.089139453125000000e+04
-6.087357812500000000e+04
-6.086698046875000000e+04
-6.086466015625000000e+04
-6.086117968750000000e+04
-6.086019140625000000e+04
-6.086421093750000000e+04
-6.086405859375000000e+04
-6.086512500000000000e+04
-6.086310937500000000e+04
-6.086414062500000000e+04
-6.086256640625000000e+04
-6.086192578125000000e+04
-6.086085156250000000e+04
-6.086289453125000000e+04
-6.086405078125000000e+04
-6.086357421875000000e+04
-6.086080078125000000e+04
-6.086400781250000000e+04
-6.086489062500000000e+04
-6.086337109375000000e+04
-6.086399218750000000e+04
-6.086431640625000000e+04
-6.086100781250000000e+04
-6.086231640625000000e+04
-6.086362890625000000e+04
-6.086323828125000000e+04
-6.086550781250000000e+04
-6.086401953125000000e+04
-6.086195312500000000e+04
-6.089139453125000000e+04
-6.086558984375000000e+04
-6.086191406250000000e+04
-6.084770703125000000e+04
-6.084457031250000000e+04
-6.084259765625000000e+04
-6.084140234375000000e+04
-6.084269140625000000e+04
-6.084113671875000000e+04
-6.084183984375000000e+04
-6.084210156250000000e+04
-6.084015625000000000e+04
-6.084042968750000000e+04
-6.083994140625000000e+04
-6.083717578125000000e+04
-6.083858203125000000e+04
-6.083663281250000000e+04
-6.083845703125000000e+04
-6.084006250000000000e+04
-6.084204687500000000e+04
-6.084180859375000000e+04
-6.083880468750000000e+04
-6.083790625000000000e+04
-6.084357421875000000e+04
-6.084491796875000000e+04
-6.084080078125000000e+04
-6.083710156250000000e+04
-6.083671484375000000e+04
-6.083919921875000000e+04
-6.084183593750000000e+04
-6.084006640625000000e+04
-6.083824218750000000e+04
-6.083760937500000000e+04
-6.083687109375000000e+04
-6.083884375000000000e+04
-6.089143359375000000e+04
-6.088157812500000000e+04
-6.088083203125000000e+04
-6.087888671875000000e+04
-6.087805078125000000e+04
-6.087913281250000000e+04
-6.087953515625000000e+04
-6.087946875000000000e+04
-6.087825000000000000e+04
-6.087369140625000000e+04
-6.087871093750000000e+04
-6.087876953125000000e+04
-6.087883203125000000e+04
-6.087708203125000000e+04
-6.087804296875000000e+04
-6.087797265625000000e+04
-6.087848828125000000e+04
-6.087776953125000000e+04
-6.087839062500000000e+04
-6.087784765625000000e+04
-6.087786718750000000e+04
-6.087839062500000000e+04
-6.087911718750000000e+04
-6.087817187500000000e+04
-6.087939062500000000e+04
-6.087780468750000000e+04
-6.087941406250000000e+04
-6.087861328125000000e+04
-6.087953125000000000e+04
-6.087834375000000000e+04
-6.087881640625000000e+04
-6.087874218750000000e+04
-6.087823437500000000e+04
-6.087802343750000000e+04
-6.087885937500000000e+04
-6.087910937500000000e+04
-6.087865625000000000e+04
-6.087738671875000000e+04
-6.087858203125000000e+04
-6.087997656250000000e+04
-6.087928515625000000e+04
-6.087787109375000000e+04
-6.089143359375000000e+04
-6.087390625000000000e+04
-6.086981640625000000e+04
-6.086670312500000000e+04
-6.086025390625000000e+04
-6.086309765625000000e+04
-6.086288281250000000e+04
-6.086287890625000000e+04
-6.086438671875000000e+04
-6.086321875000000000e+04
-6.086285156250000000e+04
-6.086201562500000000e+04
-6.086328515625000000e+04
-6.086245312500000000e+04
-6.086255078125000000e+04
-6.086201171875000000e+04
-6.086246875000000000e+04
-6.086019921875000000e+04
-6.086017578125000000e+04
-6.086092968750000000e+04
-6.086067187500000000e+04
-6.086162500000000000e+04
-6.086456640625000000e+04
-6.086306250000000000e+04
-6.085888281250000000e+04
-6.085624609375000000e+04
-6.086196484375000000e+04
-6.086123828125000000e+04
-6.086000390625000000e+04
-6.085691406250000000e+04
-6.085723437500000000e+04
-6.086030859375000000e+04
-6.086088671875000000e+04
-6.086233984375000000e+04
-6.086259765625000000e+04
-6.086260937500000000e+04
-6.085878906250000000e+04
-6.085569921875000000e+04
-6.089143359375000000e+04
-6.086350781250000000e+04
-6.086126562500000000e+04
-6.085507031250000000e+04
-6.085513671875000000e+04
-6.084569921875000000e+04
-6.084186328125000000e+04
-6.084055468750000000e+04
-6.084015625000000000e+04
-6.084062109375000000e+04
-6.084281250000000000e+04
-6.084601562500000000e+04
-6.084266015625000000e+04
-6.084149609375000000e+04
-6.083837890625000000e+04
-6.083892187500000000e+04
-6.084109765625000000e+04
-6.084065234375000000e+04
-6.084063671875000000e+04
-6.083749218750000000e+04
-6.084082031250000000e+04
-6.083988671875000000e+04
-6.083746093750000000e+04
-6.083939453125000000e+04
-6.084186328125000000e+04
-6.084325390625000000e+04
-6.084218359375000000e+04
-6.084274218750000000e+04
-6.084076953125000000e+04
-6.084133203125000000e+04
-6.084502734375000000e+04
-6.084260937500000000e+04
-6.084158203125000000e+04
-6.083887890625000000e+04
-6.084152343750000000e+04
-6.084321093750000000e+04
-6.084228125000000000e+04
-6.084211718750000000e+04
-6.089298046875000000e+04
-6.088172656250000000e+04
-6.088129296875000000e+04
-6.087998828125000000e+04
-6.087892968750000000e+04
-6.087742578125000000e+04
-6.087994531250000000e+04
-6.087946093750000000e+04
-6.087928906250000000e+04
-6.087835156250000000e+04
-6.087897265625000000e+04
-6.088028515625000000e+04
-6.087957812500000000e+04
-6.087805078125000000e+04
-6.087943750000000000e+04
-6.087934375000000000e+04
-6.088013671875000000e+04
-6.087807421875000000e+04
-6.087858984375000000e+04
-6.087821875000000000e+04
-6.087971875000000000e+04
-6.087833593750000000e+04