-1.998776054382324219e+01 1.624983787536621094e+01 2.647661209106445312e+01 1.624983787536621094e+01 -9.840653991699218750e+01 9.642892837524414062e+00 2.647661209106445312e+01 9.642892837524414062e+00 -6.853008270263671875e+01
3.712532806396484375e+01 1.746875643730163574e+00 1.214069938659667969e+01 1.746875643730163574e+00 5.703158378601074219e+00 8.027855873107910156e+00 1.214069938659667969e+01 8.027855873107910156e+00 1.540321540832519531e+01
1.191354370117187500e+01 -4.497929096221923828e+00 2.224672079086303711e+00 -4.497929096221923828e+00 -4.726206302642822266e+00 4.228009223937988281e+00 2.224672079086303711e+00 4.228009223937988281e+00 3.903795003890991211e+00
-1.125088596343994141e+01 2.625043869018554688e+00 1.757147598266601562e+01 2.625043869018554688e+00 -2.163529777526855469e+01 3.090897798538208008e+00 1.757147598266601562e+01 3.090897798538208008e+00 7.010373592376708984e+00
3.251918029785156250e+01 -1.852909624576568604e-01 4.581710338592529297e+00 -1.852909624576568604e-01 2.130985641479492188e+01 9.234115600585937500e+00 4.581710338592529297e+00 9.234115600585937500e+00 1.083676624298095703e+01
-1.656058120727539062e+01 5.122857570648193359e+00 5.663743019104003906e+00 5.122857570648193359e+00 -1.742823791503906250e+01 4.079127311706542969e+00 5.663743019104003906e+00 4.079127311706542969e+00 -2.104306793212890625e+01
1.418837738037109375e+01 -3.440549969673156738e-01 1.358542442321777344e+01 -3.440549969673156738e-01 -3.294230699539184570e+00 7.151179313659667969e+00 1.358542442321777344e+01 7.151179313659667969e+00 1.042492580413818359e+01
5.960136890411376953e+00 -3.476266384124755859e+00 1.736909389495849609e+00 -3.476266384124755859e+00 -1.082391452789306641e+01 1.331359863281250000e+01 1.736909389495849609e+00 1.331359863281250000e+01 2.843479156494140625e+00
-1.249168109893798828e+01 1.048924565315246582e+00 4.372576236724853516e+00 1.048924565315246582e+00 -1.208240127563476562e+01 8.302149772644042969e+00 4.372576236724853516e+00 8.302149772644042969e+00 -7.245197772979736328e+00
3.137676715850830078e+00 2.476901292800903320e+00 1.279358148574829102e+00 2.476901292800903320e+00 -1.229607772827148438e+01 5.244077205657958984e+00 1.279358148574829102e+00 5.244077205657958984e+00 -1.299604034423828125e+01
3.530962944030761719e+00 -8.514176368713378906e+00 -4.619495868682861328e+00 -8.514176368713378906e+00 -7.406118869781494141e+00 3.893248558044433594e+00 -4.619495868682861328e+00 3.893248558044433594e+00 -2.358521699905395508e+00
7.497634887695312500e+00 7.465457439422607422e+00 1.256533050537109375e+01 7.465457439422607422e+00 5.116140842437744141e+00 1.361291694641113281e+01 1.256533050537109375e+01 1.361291694641113281e+01 1.328588604927062988e+00
9.827262878417968750e+00 8.988221168518066406e+00 -2.939879894256591797e+00 8.988221168518066406e+00 -5.218600034713745117e-01 2.550883054733276367e+00 -2.939879894256591797e+00 2.550883054733276367e+00 -1.064811134338378906e+01
7.819983005523681641e+00 -6.066013336181640625e+00 -4.514520645141601562e+00 -6.066013336181640625e+00 -2.093519783020019531e+01 1.170365333557128906e+00 -4.514520645141601562e+00 1.170365333557128906e+00 -9.914765357971191406e+00
-3.076597452163696289e+00 5.116650462150573730e-01 1.020183488726615906e-01 5.116650462150573730e-01 -2.195777893066406250e+01 4.559055328369140625e+00 1.020183488726615906e-01 4.559055328369140625e+00 9.840447902679443359e-01
8.220964431762695312e+00 -4.065364360809326172e+00 4.830488204956054688e+00 -4.065364360809326172e+00 -5.944552898406982422e+00 2.062595605850219727e+00 4.830488204956054688e+00 2.062595605850219727e+00 4.219362258911132812e+00
-1.404980540275573730e+00 -1.316561603546142578e+01 -4.328992843627929688e+00 -1.316561603546142578e+01 1.946107745170593262e+00 7.587347984313964844e+00 -4.328992843627929688e+00 7.587347984313964844e+00 1.922941684722900391e+00
1.863555145263671875e+01 -6.531911373138427734e+00 -2.683097600936889648e+00 -6.531911373138427734e+00 2.325523138046264648e+00 8.947682380676269531e+00 -2.683097600936889648e+00 8.947682380676269531e+00 -1.019020080566406250e+01
1.109890842437744141e+01 4.132884502410888672e+00 -1.025136661529541016e+01 4.132884502410888672e+00 -8.362011909484863281e+00 1.197541236877441406e+01 -1.025136661529541016e+01 1.197541236877441406e+01 2.459751129150390625e+00
-1.500339627265930176e+00 -3.542759895324707031e+00 2.303032875061035156e+00 -3.542759895324707031e+00 -6.068198084831237793e-01 5.105035305023193359e+00 2.303032875061035156e+00 5.105035305023193359e+00 -7.267967224121093750e+00
-1.164847090840339661e-01 -8.685202598571777344e+00 -2.356267929077148438e+00 -8.685202598571777344e+00 -9.106861114501953125e+00 -2.235780715942382812e+00 -2.356267929077148438e+00 -2.235780715942382812e+00 -1.066198635101318359e+01
2.670697212219238281e+01 -4.892549991607666016e+00 -2.429054975509643555e+00 -4.892549991607666016e+00 -1.022064495086669922e+01 9.152039527893066406e+00 -2.429054975509643555e+00 9.152039527893066406e+00 1.259499645233154297e+01
1.569261169433593750e+01 6.481682300567626953e+00 -1.102455735206604004e+00 6.481682300567626953e+00 -8.420140266418457031e+00 1.242185306549072266e+01 -1.102455735206604004e+00 1.242185306549072266e+01 -1.810931396484375000e+01
-2.181301116943359375e+00 9.633537292480468750e+00 4.467469453811645508e-01 9.633537292480468750e+00 -1.981307411193847656e+01 5.827569484710693359e+00 4.467469453811645508e-01 5.827569484710693359e+00 -4.960516929626464844e+00
1.736824607849121094e+01 -8.025685548782348633e-01 5.528241157531738281e+00 -8.025685548782348633e-01 -1.536766052246093750e+01 6.540788173675537109e+00 5.528241157531738281e+00 6.540788173675537109e+00 -2.619903564453125000e+00
-4.833432674407958984e+00 -1.085333061218261719e+01 8.131639480590820312e+00 -1.085333061218261719e+01 -1.666203498840332031e+01 9.236014366149902344e+00 8.131639480590820312e+00 9.236014366149902344e+00 6.010111570358276367e-01
1.507834625244140625e+01 -8.557120323181152344e+00 1.511257839202880859e+01 -8.557120323181152344e+00 -2.894769430160522461e+00 7.964071035385131836e-01 1.511257839202880859e+01 7.964071035385131836e-01 -1.193782329559326172e+01
6.911509513854980469e+00 -1.596576720476150513e-01 2.143381357192993164e+00 -1.596576720476150513e-01 -5.581956386566162109e+00 1.459945082664489746e+00 2.143381357192993164e+00 1.459945082664489746e+00 -1.223254489898681641e+01
8.153375625610351562e+00 1.016251182556152344e+01 -4.506722450256347656e+00 1.016251182556152344e+01 -1.028786468505859375e+01 3.980201482772827148e+00 -4.506722450256347656e+00 3.980201482772827148e+00 -2.249444246292114258e+00
2.701229095458984375e+00 1.018561959266662598e+00 6.561384201049804688e+00 1.018561959266662598e+00 -7.809976100921630859e+00 7.240679264068603516e+00 6.561384201049804688e+00 7.240679264068603516e+00 -1.357253170013427734e+01
-1.012762188911437988e+00 -1.016300868988037109e+01 2.406410932540893555e+00 -1.016300868988037109e+01 2.738934040069580078e+00 1.115508842468261719e+01 2.406410932540893555e+00 1.115508842468261719e+01 1.360028171539306641e+01
-2.018933057785034180e+00 4.763477742671966553e-01 -1.417262196540832520e+00 4.763477742671966553e-01 -3.281053161621093750e+01 7.700098037719726562e+00 -1.417262196540832520e+00 7.700098037719726562e+00 -1.127802753448486328e+01
-4.609221935272216797e+00 -2.770643949508666992e+00 -6.926485538482666016e+00 -2.770643949508666992e+00 -1.225898456573486328e+01 9.447337150573730469e+00 -6.926485538482666016e+00 9.447337150573730469e+00 -3.723701238632202148e+00
-1.240723013877868652e+00 -8.321904182434082031e+00 -4.707308769226074219e+00 -8.321904182434082031e+00 -1.384176826477050781e+01 5.748243808746337891e+00 -4.707308769226074219e+00 5.748243808746337891e+00 -8.003650665283203125e+00
-1.475990891456604004e+00 8.638634681701660156e+00 1.299851799011230469e+01 8.638634681701660156e+00 -1.286682796478271484e+01 7.656322479248046875e+00 1.299851799011230469e+01 7.656322479248046875e+00 -5.476207733154296875e+00
-3.754715919494628906e+00 -3.414403200149536133e+00 -7.687407016754150391e+00 -3.414403200149536133e+00 -1.509809398651123047e+01 -1.469814896583557129e+00 -7.687407016754150391e+00 -1.469814896583557129e+00 -1.697584152221679688e+01
2.207836341857910156e+01 -3.858853578567504883e+00 -2.614857912063598633e+00 -3.858853578567504883e+00 -5.845389366149902344e+00 -1.910199284553527832e+00 -2.614857912063598633e+00 -1.910199284553527832e+00 1.789382171630859375e+01
1.755823707580566406e+01 -4.926868438720703125e+00 4.001362800598144531e+00 -4.926868438720703125e+00 -1.834940719604492188e+01 1.877575492858886719e+01 4.001362800598144531e+00 1.877575492858886719e+01 -1.324374866485595703e+01
1.098801612854003906e+01 4.028658568859100342e-01 8.605029106140136719e+00 4.028658568859100342e-01 -2.440969467163085938e+01 7.882544517517089844e+00 8.605029106140136719e+00 7.882544517517089844e+00 -9.491271972656250000e+00
1.543308448791503906e+01 -1.070765852928161621e+00 -5.132677078247070312e+00 -1.070765852928161621e+00 -1.744858360290527344e+01 -2.553675889968872070e+00 -5.132677078247070312e+00 -2.553675889968872070e+00 7.006114959716796875e+00
-1.327093696594238281e+01 -1.304290103912353516e+01 4.468162536621093750e+00 -1.304290103912353516e+01 -2.198597526550292969e+01 1.423796272277832031e+01 4.468162536621093750e+00 1.423796272277832031e+01 -2.113389015197753906e+01
1.219229793548583984e+01 9.221833229064941406e+00 9.853820800781250000e+00 9.221833229064941406e+00 1.669041872024536133e+00 7.143968582153320312e+00 9.853820800781250000e+00 7.143968582153320312e+00 -1.600838899612426758e+00
-9.943072319030761719e+00 -1.407750225067138672e+01 6.892498016357421875e+00 -1.407750225067138672e+01 -1.576050186157226562e+01 1.471958732604980469e+01 6.892498016357421875e+00 1.471958732604980469e+01 3.992983579635620117e+00
7.382747173309326172e+00 -5.547256946563720703e+00 -4.613086283206939697e-01 -5.547256946563720703e+00 -1.003473281860351562e+00 4.383437037467956543e-01 -4.613086283206939697e-01 4.383437037467956543e-01 1.659663581848144531e+01
-1.998775482177734375e+01 1.624983596801757812e+01 2.647661781311035156e+01 1.624983596801757812e+01 -9.840653991699218750e+01 9.642890930175781250e+00 2.647661781311035156e+01 9.642890930175781250e+00 -6.853008270263671875e+01
-3.127578258514404297e+00 6.067059516906738281e+00 -1.448308753967285156e+01 6.067059516906738281e+00 -1.512104606628417969e+01 -3.606984853744506836e+00 -1.448308753967285156e+01 -3.606984853744506836e+00 6.136118888854980469e+00
-3.694741821289062500e+01 4.061598777770996094e+00 1.895066142082214355e+00 4.061598777770996094e+00 -2.173203086853027344e+01 -7.678220272064208984e+00 1.895066142082214355e+00 -7.678220272064208984e+00 -1.733100128173828125e+01
-6.835100650787353516e+00 -1.087895011901855469e+01 1.834654617309570312e+01 -1.087895011901855469e+01 -1.776044517755508423e-01 9.224963188171386719e+00 1.834654617309570312e+01 9.224963188171386719e+00 1.231724834442138672e+01
-4.576771736145019531e+00 3.975288152694702148e+00 5.974180221557617188e+00 3.975288152694702148e+00 -1.882090568542480469e+01 1.152647972106933594e+01 5.974180221557617188e+00 1.152647972106933594e+01 -9.580365180969238281e+00
-1.438399314880371094e+01 -2.119325637817382812e+00 -5.239249229431152344e+00 -2.119325637817382812e+00 -2.863771629333496094e+01 2.012231254577636719e+01 -5.239249229431152344e+00 2.012231254577636719e+01 -1.635329818725585938e+01
-2.460357856750488281e+01 7.658578872680664062e+00 7.070776939392089844e+00 7.658578872680664062e+00 -3.251091766357421875e+01 2.029243469238281250e+01 7.070776939392089844e+00 2.029243469238281250e+01 -1.036262798309326172e+01
3.848543882369995117e+00 3.212248682975769043e-01 9.720798492431640625e+00 3.212248682975769043e-01 -6.865281105041503906e+00 -5.939978122711181641e+00 9.720798492431640625e+00 -5.939978122711181641e+00 7.936704158782958984e-01
3.145329236984252930e+00 -4.026838302612304688e+00 2.050797080993652344e+01 -4.026838302612304688e+00 -1.859756851196289062e+01 9.987716674804687500e+00 2.050797080993652344e+01 9.987716674804687500e+00 1.746221923828125000e+01
1.006157398223876953e+01 7.306045055389404297e+00 1.435705184936523438e+01 7.306045055389404297e+00 -2.513358116149902344e+01 9.395277023315429688e+00 1.435705184936523438e+01 9.395277023315429688e+00 -3.327849578857421875e+01
-1.104398632049560547e+01 8.253144264221191406e+00 6.747711449861526489e-02 8.253144264221191406e+00 2.908238649368286133e+00 8.163812637329101562e+00 6.747711449861526489e-02 8.163812637329101562e+00 -1.289107322692871094e+01
3.685382127761840820e+00 -3.834483146667480469e+00 8.010402679443359375e+00 -3.834483146667480469e+00 -7.832370758056640625e+00 8.050909042358398438e+00 8.010402679443359375e+00 8.050909042358398438e+00 -1.403732585906982422e+01
-1.517029857635498047e+01 1.400950431823730469e+01 9.324236869812011719e+00 1.400950431823730469e+01 -4.103997421264648438e+01 4.105982780456542969e+00 9.324236869812011719e+00 4.105982780456542969e+00 -8.798188209533691406e+00
-2.213597774505615234e+00 1.238226890563964844e+01 4.583817958831787109e+00 1.238226890563964844e+01 -3.383742904663085938e+01 6.717697620391845703e+00 4.583817958831787109e+00 6.717697620391845703e+00 -1.761551856994628906e+01
-3.548881912231445312e+01 1.294161605834960938e+01 -7.120325230062007904e-03 1.294161605834960938e+01 -2.479220390319824219e+01 -3.294583082199096680e+00 -7.120325230062007904e-03 -3.294583082199096680e+00 -4.422097778320312500e+01
-1.849863648414611816e+00 -6.282723426818847656e+00 1.012969589233398438e+01 -6.282723426818847656e+00 -1.099413394927978516e+01 3.001930475234985352e+00 1.012969589233398438e+01 3.001930475234985352e+00 -5.834336757659912109e+00
2.098080825805664062e+01 -9.282783508300781250e+00 1.629828643798828125e+01 -9.282783508300781250e+00 -3.073972129821777344e+01 -1.261695660650730133e-02 1.629828643798828125e+01 -1.261695660650730133e-02 6.391744136810302734e+00
-1.182022690773010254e+00 -5.622474670410156250e+00 1.808333587646484375e+01 -5.622474670410156250e+00 -3.816548156738281250e+01 -3.303101539611816406e+00 1.808333587646484375e+01 -3.303101539611816406e+00 -3.535876464843750000e+01
-1.779054641723632812e+01 -1.214393234252929688e+01 8.152811050415039062e+00 -1.214393234252929688e+01 -2.787516021728515625e+01 3.121474266052246094e+00 8.152811050415039062e+00 3.121474266052246094e+00 -2.412937927246093750e+01
-1.810475111007690430e+00 -1.714197397232055664e+00 2.087972068786621094e+01 -1.714197397232055664e+00 -1.269973278045654297e+01 1.201924133300781250e+01 2.087972068786621094e+01 1.201924133300781250e+01 -8.078690528869628906e+00
-6.655885696411132812e+00 2.004314231872558594e+01 -3.533179283142089844e+00 2.004314231872558594e+01 -1.951947593688964844e+01 9.576042890548706055e-01 -3.533179283142089844e+00 9.576042890548706055e-01 -1.700544548034667969e+01
-2.084191703796386719e+01 1.440032577514648438e+01 4.571056842803955078e+00 1.440032577514648438e+01 -2.117130279541015625e+01 7.107688903808593750e+00 4.571056842803955078e+00 7.107688903808593750e+00 -3.771541213989257812e+01
-2.741543292999267578e+00 6.286902427673339844e+00 1.275227165222167969e+01 6.286902427673339844e+00 -3.170682907104492188e+00 1.855203437805175781e+01 1.275227165222167969e+01 1.855203437805175781e+01 -2.044363975524902344e+01
-8.992239952087402344e+00 -1.253629493713378906e+01 1.561895847320556641e+01 -1.253629493713378906e+01 -1.976327514648437500e+01 7.840263843536376953e+00 1.561895847320556641e+01 7.840263843536376953e+00 -2.491633176803588867e+00
1.474091434478759766e+01 -1.873237609863281250e+00 -4.954999446868896484e+00 -1.873237609863281250e+00 -8.618321418762207031e+00 1.204610347747802734e+01 -4.954999446868896484e+00 1.204610347747802734e+01 3.626727819442749023e+00
-2.526328086853027344e+01 -2.141338735818862915e-01 4.780978202819824219e+00 -2.141338735818862915e-01 -3.577256774902343750e+01 2.734325790405273438e+01 4.780978202819824219e+00 2.734325790405273438e+01 -1.714488983154296875e+01
-1.317905426025390625e+01 2.240688562393188477e+00 1.744609832763671875e+01 2.240688562393188477e+00 1.016804122924804688e+01 3.164970636367797852e+00 1.744609832763671875e+01 3.164970636367797852e+00 3.281716537475585938e+01
-3.466965484619140625e+01 -1.755517196655273438e+01 7.269827365875244141e+00 -1.755517196655273438e+01 -5.007960510253906250e+01 1.094039916992187500e+01 7.269827365875244141e+00 1.094039916992187500e+01 -2.285445976257324219e+01
-5.359197616577148438e+00 -1.194772720336914062e+01 1.175223445892333984e+01 -1.194772720336914062e+01 -3.471483612060546875e+01 -3.630858361721038818e-01 1.175223445892333984e+01 -3.630858361721038818e-01 -3.119222068786621094e+01
-4.108693122863769531e+00 -5.412449359893798828e+00 1.157313156127929688e+01 -5.412449359893798828e+00 2.752733802795410156e+01 4.012105941772460938e+00 1.157313156127929688e+01 4.012105941772460938e+00 -1.948469543457031250e+01
6.056634902954101562e+00 -7.863913536071777344e+00 8.254451751708984375e+00 -7.863913536071777344e+00 -1.938363075256347656e+01 4.388247966766357422e+00 8.254451751708984375e+00 4.388247966766357422e+00 -1.033787155151367188e+01
-1.998775863647460938e+01 1.624983787536621094e+01 2.647661209106445312e+01 1.624983787536621094e+01 -9.840653991699218750e+01 9.642890930175781250e+00 2.647661209106445312e+01 9.642890930175781250e+00 -6.853008270263671875e+01
3.783277511596679688e+00 -1.196200752258300781e+01 -2.703414678573608398e+00 -1.196200752258300781e+01 -7.854432582855224609e+00 3.470306396484375000e+00 -2.703414678573608398e+00 3.470306396484375000e+00 -1.165114307403564453e+01
-1.651777839660644531e+01 -8.043309211730957031e+00 7.949899435043334961e-01 -8.043309211730957031e+00 -2.667332077026367188e+01 1.352277660369873047e+01 7.949899435043334961e-01 1.352277660369873047e+01 -1.372186946868896484e+01
-1.089982128143310547e+01 5.094177126884460449e-01 9.239038467407226562e+00 5.094177126884460449e-01 -1.972599029541015625e+01 -2.400669753551483154e-01 9.239038467407226562e+00 -2.400669753551483154e-01 9.825993537902832031e+00
-1.047082805633544922e+01 -6.329598903656005859e+00 -7.243451595306396484e+00 -6.329598903656005859e+00 -1.684245300292968750e+01 -3.336467504501342773e+00 -7.243451595306396484e+00 -3.336467504501342773e+00 -3.364684295654296875e+01
7.057405471801757812e+00 -1.290221691131591797e+01 7.468152999877929688e+00 -1.290221691131591797e+01 -1.975097084045410156e+01 -4.858797490596771240e-01 7.468152999877929688e+00 -4.858797490596771240e-01 -5.031715774536132812e+01
-1.818290901184082031e+01 1.264110279083251953e+01 9.652606010437011719e+00 1.264110279083251953e+01 -2.009035301208496094e+01 9.919307708740234375e+00 9.652606010437011719e+00 9.919307708740234375e+00 -5.478773593902587891e+00
2.861629724502563477e+00 -1.062152099609375000e+01 2.288641166687011719e+01 -1.062152099609375000e+01 3.093380451202392578e+00 2.719784164428710938e+01 2.288641166687011719e+01 2.719784164428710938e+01 -3.761371231079101562e+01
-1.520072460174560547e+01 5.820883512496948242e-01 1.269691139459609985e-01 5.820883512496948242e-01 -2.566104650497436523e+00 -3.569873094558715820e+00 1.269691139459609985e-01 -3.569873094558715820e+00 -9.258898735046386719e+00
-3.401316833496093750e+01 4.402965545654296875e+00 -1.320660305023193359e+01 4.402965545654296875e+00 4.645726680755615234e+00 1.655628585815429688e+01 -1.320660305023193359e+01 1.655628585815429688e+01 -2.577229309082031250e+01
-3.592536163330078125e+01 -7.009039521217346191e-01 -3.759728670120239258e+00 -7.009039521217346191e-01 -3.971269989013671875e+01 -6.175307750701904297e+00 -3.759728670120239258e+00 -6.175307750701904297e+00 -2.684875679016113281e+01
-3.240963745117187500e+01 2.646178007125854492e+00 1.335834217071533203e+01 2.646178007125854492e+00 -1.028807449340820312e+01 -7.544379711151123047e+00 1.335834217071533203e+01 -7.544379711151123047e+00 -2.637632179260253906e+01
-2.942949295043945312e+00 -9.006529808044433594e+00 6.506437778472900391e+00 -9.006529808044433594e+00 -3.049568653106689453e+00 -2.790634393692016602e+00 6.506437778472900391e+00 -2.790634393692016602e+00 -3.285306930541992188e+01
-7.541938781738281250e+00 1.307556343078613281e+01 2.402681541442871094e+01 1.307556343078613281e+01 -2.580187034606933594e+01 6.512059688568115234e+00 2.402681541442871094e+01 6.512059688568115234e+00 -1.560448741912841797e+01
4.433620452880859375e+00 1.433891773223876953e+01 3.787389039993286133e+00 1.433891773223876953e+01 -1.295305824279785156e+01 -1.791601371765136719e+01 3.787389039993286133e+00 -1.791601371765136719e+01 -1.165177154541015625e+01
2.676902770996093750e+00 -1.377072811126708984e+01 1.607128524780273438e+01 -1.377072811126708984e+01 -2.774868774414062500e+01 -1.648964500427246094e+01 1.607128524780273438e+01 -1.648964500427246094e+01 -1.273477077484130859e+01
-7.757650756835937500e+01 1.064893627166748047e+01 -7.917593717575073242e-01 1.064893627166748047e+01 -4.690097045898437500e+01 6.713186264038085938e+00 -7.917593717575073242e-01 6.713186264038085938e+00 -2.607650518417358398e+00
-1.473505210876464844e+01 1.225579142570495605e+00 2.149300575256347656e-01 1.225579142570495605e+00 3.530897378921508789e+00 1.430748748779296875e+01 2.149300575256347656e-01 1.430748748779296875e+01 -2.868334579467773438e+01
-1.557332038879394531e+01 -1.225014877319335938e+01 3.409720182418823242e+00 -1.225014877319335938e+01 -4.038306045532226562e+01 6.612110137939453125e+00 3.409720182418823242e+00 6.612110137939453125e+00 -3.213318252563476562e+01
-4.067297744750976562e+01 6.209757328033447266e+00 3.118507266044616699e-01 6.209757328033447266e+00 7.825938701629638672e+00 1.069658756256103516e+01 3.118507266044616699e-01 1.069658756256103516e+01 9.295235276222229004e-01
-2.351389503479003906e+01 7.545173645019531250e+00 1.167885112762451172e+01 7.545173645019531250e+00 -5.569335460662841797e+00 -2.484706163406372070e+00 1.167885112762451172e+01 -2.484706163406372070e+00 -1.952344512939453125e+01
-2.305613708496093750e+01 -1.433337211608886719e+01 7.272136956453323364e-02 -1.433337211608886719e+01 -5.136209106445312500e+01 -2.907057285308837891e+00 7.272136956453323364e-02 -2.907057285308837891e+00 3.798974990844726562e+00
-1.070055961608886719e+01 -1.283951568603515625e+01 1.328265666961669922e+01 -1.283951568603515625e+01 -1.965535736083984375e+01 -1.204143333435058594e+01 1.328265666961669922e+01 -1.204143333435058594e+01 -1.014369678497314453e+01
-1.751235771179199219e+01 -6.987163543701171875e+00 1.060238742828369141e+01 -6.987163543701171875e+00 -3.650855255126953125e+01 -1.043371391296386719e+01 1.060238742828369141e+01 -1.043371391296386719e+01 -2.363814926147460938e+01
-1.656853294372558594e+01 -6.112083435058593750e+00 -4.578432559967041016e+00 -6.112083435058593750e+00 -3.269969940185546875e+01 -1.340924930572509766e+01 -4.578432559967041016e+00 -1.340924930572509766e+01 -3.316224813461303711e+00
-1.410940289497375488e+00 -5.134016990661621094e+00 -1.458269309997558594e+01 -5.134016990661621094e+00 1.110957336425781250e+01 -2.755402922630310059e-01 -1.458269309997558594e+01 -2.755402922630310059e-01 -8.721515655517578125e+00
-8.236713409423828125e+00 7.508660793304443359e+00 1.712659072875976562e+01 7.508660793304443359e+00 -5.777230262756347656e-01 5.283987522125244141e-01 1.712659072875976562e+01 5.283987522125244141e-01 -1.039235496520996094e+01
-6.975466251373291016e+00 -8.348814010620117188e+00 -2.511939239501953125e+01 -8.348814010620117188e+00 -3.902243041992187500e+01 -1.174246311187744141e+01 -2.511939239501953125e+01 -1.174246311187744141e+01 -1.458513450622558594e+01
-3.540962219238281250e+01 -2.057801723480224609e+00 7.944845676422119141e+00 -2.057801723480224609e+00 -1.669735527038574219e+01 6.671175956726074219e+00 7.944845676422119141e+00 6.671175956726074219e+00 -1.575723171234130859e+01
1.076624393463134766e+01 3.975623607635498047e+00 -1.230704402923583984e+01 3.975623607635498047e+00 -1.358259487152099609e+01 3.394205570220947266e+00 -1.230704402923583984e+01 3.394205570220947266e+00 -2.130075263977050781e+01
-2.352601814270019531e+01 1.548493194580078125e+01 -9.926923751831054688e+00 1.548493194580078125e+01 -6.595065593719482422e+00 -8.375469207763671875e+00 -9.926923751831054688e+00 -8.375469207763671875e+00 -4.151537704467773438e+01
-7.921247482299804688e+00 -8.998464584350585938e+00 -1.097149467468261719e+01 -8.998464584350585938e+00 -9.272284507751464844e+00 -2.106194877624511719e+01 -1.097149467468261719e+01 -2.106194877624511719e+01 -1.345634269714355469e+01
-3.817775726318359375e+01 -3.805137634277343750e+00 3.651194810867309570e+00 -3.805137634277343750e+00 -1.424040794372558594e+00 1.766447782516479492e+00 3.651194810867309570e+00 1.766447782516479492e+00 3.647987172007560730e-02
-1.040030288696289062e+01 -8.360760688781738281e+00 -1.631708335876464844e+01 -8.360760688781738281e+00 8.559948921203613281e+00 -1.270897579193115234e+01 -1.631708335876464844e+01 -1.270897579193115234e+01 -3.008042144775390625e+01
6.066423416137695312e+00 2.689867019653320312e+01 -9.195275306701660156e-01 2.689867019653320312e+01 -6.643096923828125000e+01 2.402914047241210938e+01 -9.195275306701660156e-01 2.402914047241210938e+01 -9.893498992919921875e+01
3.885597610473632812e+01 7.080780982971191406e+00 1.071746587753295898e+00 7.080780982971191406e+00 2.695671844482421875e+01 3.506531476974487305e+00 1.071746587753295898e+00 3.506531476974487305e+00 9.766179084777832031e+00
-4.249865710735321045e-01 -5.083549976348876953e+00 2.711617469787597656e+00 -5.083549976348876953e+00 -1.512043952941894531e+01 5.197012901306152344e+00 2.711617469787597656e+00 5.197012901306152344e+00 -6.098015785217285156e+00
-6.321605682373046875e+00 1.984245896339416504e+00 5.425391793251037598e-01 1.984245896339416504e+00 -2.217547225952148438e+01 8.759043693542480469e+00 5.425391793251037598e-01 8.759043693542480469e+00 -2.010853195190429688e+01
2.873090934753417969e+01 -4.385756552219390869e-01 4.425845146179199219e+00 -4.385756552219390869e-01 2.517236137390136719e+01 1.356346368789672852e+00 4.425845146179199219e+00 1.356346368789672852e+00 2.066436195373535156e+01
-2.393385648727416992e+00 -4.777548313140869141e+00 -5.272360801696777344e+00 -4.777548313140869141e+00 -1.223737621307373047e+01 1.470560455322265625e+01 -5.272360801696777344e+00 1.470560455322265625e+01 -1.987964630126953125e+01
-7.126754283905029297e+00 4.582567214965820312e+00 4.192143917083740234e+00 4.582567214965820312e+00 -1.466682243347167969e+01 1.092377758026123047e+01 4.192143917083740234e+00 1.092377758026123047e+01 3.250931978225708008e+00
1.327152538299560547e+01 -8.980588912963867188e-01 8.875559270381927490e-02 -8.980588912963867188e-01 -4.327723756432533264e-02 1.510116672515869141e+01 8.875559270381927490e-02 1.510116672515869141e+01 5.108177065849304199e-01
2.165192663669586182e-01 8.227712631225585938e+00 -4.024071693420410156e+00 8.227712631225585938e+00 -2.396805000305175781e+01 1.057596397399902344e+01 -4.024071693420410156e+00 1.057596397399902344e+01 -2.592168998718261719e+01
3.043413734436035156e+01 1.418412625789642334e-01 1.404182553291320801e+00 1.418412625789642334e-01 2.026419830322265625e+01 8.600718498229980469e+00 1.404182553291320801e+00 8.600718498229980469e+00 2.758581161499023438e+00
4.712526798248291016e+00 -2.420241594314575195e+00 5.726612567901611328e+00 -2.420241594314575195e+00 -2.034354019165039062e+01 1.405977725982666016e+01 5.726612567901611328e+00 1.405977725982666016e+01 -6.914340972900390625e+00
1.011829853057861328e+01 2.549453258514404297e+00 4.091039896011352539e-01 2.549453258514404297e+00 -1.160333251953125000e+01 9.368463516235351562e+00 4.091039896011352539e-01 9.368463516235351562e+00 -2.221109628677368164e+00
9.550820350646972656e+00 -1.370770645141601562e+01 8.347562789916992188e+00 -1.370770645141601562e+01 3.725607395172119141e+00 1.125998115539550781e+01 8.347562789916992188e+00 1.125998115539550781e+01 2.027013778686523438e+00
1.284177422523498535e+00 -2.398585796356201172e+00 4.466643810272216797e+00 -2.398585796356201172e+00 8.858848571777343750e+00 1.002667665481567383e+00 4.466643810272216797e+00 1.002667665481567383e+00 -1.006585216522216797e+01
7.627421855926513672e+00 3.350240707397460938e+00 4.578382015228271484e+00 3.350240707397460938e+00 -8.001049995422363281e+00 1.421295166015625000e+01 4.578382015228271484e+00 1.421295166015625000e+01 1.612814307212829590e+00
5.607468605041503906e+00 6.890676021575927734e+00 -8.486683368682861328e-01 6.890676021575927734e+00 3.481422662734985352e+00 1.515078449249267578e+01 -8.486683368682861328e-01 1.515078449249267578e+01 -2.312354326248168945e+00
-9.441442489624023438e-01 -6.189789295196533203e+00 4.679917812347412109e+00 -6.189789295196533203e+00 -2.932511138916015625e+01 8.318105697631835938e+00 4.679917812347412109e+00 8.318105697631835938e+00 -1.034316730499267578e+01
1.822607994079589844e+01 4.805290699005126953e+00 2.052066040039062500e+01 4.805290699005126953e+00 -4.692335128784179688e-01 1.545113086700439453e+01 2.052066040039062500e+01 1.545113086700439453e+01 1.246834945678710938e+01
-1.026540622115135193e-01 -8.274718284606933594e+00 1.112145781517028809e+00 -8.274718284606933594e+00 -2.057953262329101562e+01 5.091610550880432129e-01 1.112145781517028809e+00 5.091610550880432129e-01 -1.589582920074462891e+01
-4.923412322998046875e+00 -1.071677303314208984e+01 -3.476291418075561523e+00 -1.071677303314208984e+01 1.094401645660400391e+01 1.033762836456298828e+01 -3.476291418075561523e+00 1.033762836456298828e+01 4.734085559844970703e+00
1.013514995574951172e+01 -4.414741516113281250e+00 4.807889461517333984e+00 -4.414741516113281250e+00 -2.002999544143676758e+00 9.941237449645996094e+00 4.807889461517333984e+00 9.941237449645996094e+00 5.557964324951171875e+00