1.772500038146972656e+01 0.000000000000000000e+00 0.000000000000000000e+00 -1.539999991655349731e-01 1.828700065612792969e+01 0.000000000000000000e+00 7.800000160932540894e-02 9.499999880790710449e-02 1.826799964904785156e+01
1.831500053405761719e+01 0.000000000000000000e+00 0.000000000000000000e+00 -1.589999943971633911e-01 1.889599990844726562e+01 0.000000000000000000e+00 7.999999821186065674e-02 9.799999743700027466e-02 1.887700080871582031e+01
1.826499938964843750e+01 0.000000000000000000e+00 0.000000000000000000e+00 -1.589999943971633911e-01 1.884399986267089844e+01 0.000000000000000000e+00 7.999999821186065674e-02 9.799999743700027466e-02 1.882500076293945312e+01
1.849500083923339844e+01 0.000000000000000000e+00 0.000000000000000000e+00 -1.609999984502792358e-01 1.908200073242187500e+01 0.000000000000000000e+00 8.100000023841857910e-02 9.899999946355819702e-02 1.906200027465820312e+01
1.875300025939941406e+01 0.000000000000000000e+00 0.000000000000000000e+00 -1.630000025033950806e-01 1.934799957275390625e+01 0.000000000000000000e+00 8.200000226497650146e-02 1.000000014901161194e-01 1.932799911499023438e+01
1.871299934387207031e+01 0.000000000000000000e+00 0.000000000000000000e+00 -1.620000004768371582e-01 1.930599975585937500e+01 0.000000000000000000e+00 8.200000226497650146e-02 1.000000014901161194e-01 1.928599929809570312e+01
1.866699981689453125e+01 0.000000000000000000e+00 0.000000000000000000e+00 -1.620000004768371582e-01 1.925900077819824219e+01 0.000000000000000000e+00 8.200000226497650146e-02 1.000000014901161194e-01 1.923900032043457031e+01
1.902499961853027344e+01 0.000000000000000000e+00 0.000000000000000000e+00 -1.650000065565109253e-01 1.962899971008300781e+01 0.000000000000000000e+00 8.299999684095382690e-02 1.019999980926513672e-01 1.960799980163574219e+01
1.895999908447265625e+01 0.000000000000000000e+00 0.000000000000000000e+00 -1.650000065565109253e-01 1.956200027465820312e+01 0.000000000000000000e+00 8.299999684095382690e-02 1.010000035166740417e-01 1.954199981689453125e+01
1.888899993896484375e+01 0.000000000000000000e+00 0.000000000000000000e+00 -1.640000045299530029e-01 1.948900032043457031e+01 0.000000000000000000e+00 8.299999684095382690e-02 1.010000035166740417e-01 1.946800041198730469e+01
1.887700080871582031e+01 0.000000000000000000e+00 0.000000000000000000e+00 -1.640000045299530029e-01 1.947599983215332031e+01 0.000000000000000000e+00 8.299999684095382690e-02 1.010000035166740417e-01 1.945599937438964844e+01
1.882099914550781250e+01 0.000000000000000000e+00 0.000000000000000000e+00 -1.630000025033950806e-01 1.941799926757812500e+01 0.000000000000000000e+00 8.200000226497650146e-02 1.000000014901161194e-01 1.939800071716308594e+01
1.889100074768066406e+01 0.000000000000000000e+00 0.000000000000000000e+00 -1.640000045299530029e-01 1.949099922180175781e+01 0.000000000000000000e+00 8.299999684095382690e-02 1.010000035166740417e-01 1.946999931335449219e+01
1.891900062561035156e+01 0.000000000000000000e+00 0.000000000000000000e+00 -1.640000045299530029e-01 1.952000045776367188e+01 0.000000000000000000e+00 8.299999684095382690e-02 1.010000035166740417e-01 1.949900054931640625e+01
1.916099929809570312e+01 0.000000000000000000e+00 0.000000000000000000e+00 -1.659999936819076538e-01 1.976899909973144531e+01 0.000000000000000000e+00 8.399999886751174927e-02 1.019999980926513672e-01 1.974900054931640625e+01
1.931900024414062500e+01 0.000000000000000000e+00 0.000000000000000000e+00 -1.679999977350234985e-01 1.993199920654296875e+01 0.000000000000000000e+00 8.500000089406967163e-02 1.030000001192092896e-01 1.991099929809570312e+01
1.916699981689453125e+01 0.000000000000000000e+00 0.000000000000000000e+00 -1.659999936819076538e-01 1.977499961853027344e+01 0.000000000000000000e+00 8.399999886751174927e-02 1.019999980926513672e-01 1.975399971008300781e+01
1.884499931335449219e+01 0.000000000000000000e+00 0.000000000000000000e+00 -1.640000045299530029e-01 1.944300079345703125e+01 0.000000000000000000e+00 8.200000226497650146e-02 1.010000035166740417e-01 1.942300033569335938e+01
1.884799957275390625e+01 0.000000000000000000e+00 0.000000000000000000e+00 -1.640000045299530029e-01 1.944599914550781250e+01 0.000000000000000000e+00 8.200000226497650146e-02 1.010000035166740417e-01 1.942600059509277344e+01
1.898699951171875000e+01 0.000000000000000000e+00 0.000000000000000000e+00 -1.650000065565109253e-01 1.958900070190429688e+01 0.000000000000000000e+00 8.299999684095382690e-02 1.010000035166740417e-01 1.956900024414062500e+01
1.934900093078613281e+01 0.000000000000000000e+00 0.000000000000000000e+00 -1.679999977350234985e-01 1.996299934387207031e+01 0.000000000000000000e+00 8.500000089406967163e-02 1.030000001192092896e-01 1.994199943542480469e+01
1.931999969482421875e+01 0.000000000000000000e+00 0.000000000000000000e+00 -1.679999977350234985e-01 1.993300056457519531e+01 0.000000000000000000e+00 8.500000089406967163e-02 1.030000001192092896e-01 1.991200065612792969e+01
1.927599906921386719e+01 0.000000000000000000e+00 0.000000000000000000e+00 -1.669999957084655762e-01 1.988800048828125000e+01 0.000000000000000000e+00 8.399999886751174927e-02 1.030000001192092896e-01 1.986700057983398438e+01
1.918300056457519531e+01 0.000000000000000000e+00 0.000000000000000000e+00 -1.669999957084655762e-01 1.979100036621093750e+01 0.000000000000000000e+00 8.399999886751174927e-02 1.019999980926513672e-01 1.977099990844726562e+01
1.914299964904785156e+01 0.000000000000000000e+00 0.000000000000000000e+00 -1.659999936819076538e-01 1.975099945068359375e+01 0.000000000000000000e+00 8.399999886751174927e-02 1.019999980926513672e-01 1.972999954223632812e+01
1.899799919128417969e+01 0.000000000000000000e+00 0.000000000000000000e+00 -1.650000065565109253e-01 1.960099983215332031e+01 0.000000000000000000e+00 8.299999684095382690e-02 1.010000035166740417e-01 1.957999992370605469e+01
1.915999984741210938e+01 0.000000000000000000e+00 0.000000000000000000e+00 -1.659999936819076538e-01 1.976799964904785156e+01 0.000000000000000000e+00 8.399999886751174927e-02 1.019999980926513672e-01 1.974699974060058594e+01
1.924099922180175781e+01 0.000000000000000000e+00 0.000000000000000000e+00 -1.669999957084655762e-01 1.985099983215332031e+01 0.000000000000000000e+00 8.399999886751174927e-02 1.030000001192092896e-01 1.982999992370605469e+01
1.920899963378906250e+01 0.000000000000000000e+00 0.000000000000000000e+00 -1.669999957084655762e-01 1.981900024414062500e+01 0.000000000000000000e+00 8.399999886751174927e-02 1.030000001192092896e-01 1.979800033569335938e+01
1.772500038146972656e+01 0.000000000000000000e+00 0.000000000000000000e+00 -1.539999991655349731e-01 1.828700065612792969e+01 0.000000000000000000e+00 7.800000160932540894e-02 9.499999880790710449e-02 1.826799964904785156e+01
1.787700080871582031e+01 0.000000000000000000e+00 0.000000000000000000e+00 -1.550000011920928955e-01 1.844400024414062500e+01 0.000000000000000000e+00 7.800000160932540894e-02 9.499999880790710449e-02 1.842499923706054688e+01
1.825699996948242188e+01 0.000000000000000000e+00 0.000000000000000000e+00 -1.589999943971633911e-01 1.883600044250488281e+01 0.000000000000000000e+00 7.999999821186065674e-02 9.700000286102294922e-02 1.881699943542480469e+01
1.865299987792968750e+01 0.000000000000000000e+00 0.000000000000000000e+00 -1.620000004768371582e-01 1.924399948120117188e+01 0.000000000000000000e+00 8.200000226497650146e-02 1.000000014901161194e-01 1.922400093078613281e+01
1.873999977111816406e+01 0.000000000000000000e+00 0.000000000000000000e+00 -1.630000025033950806e-01 1.933399963378906250e+01 0.000000000000000000e+00 8.200000226497650146e-02 1.000000014901161194e-01 1.931399917602539062e+01
1.890900039672851562e+01 0.000000000000000000e+00 0.000000000000000000e+00 -1.640000045299530029e-01 1.950900077819824219e+01 0.000000000000000000e+00 8.299999684095382690e-02 1.010000035166740417e-01 1.948900032043457031e+01
1.881399917602539062e+01 0.000000000000000000e+00 0.000000000000000000e+00 -1.630000025033950806e-01 1.941099929809570312e+01 0.000000000000000000e+00 8.200000226497650146e-02 1.000000014901161194e-01 1.939100074768066406e+01
1.884799957275390625e+01 0.000000000000000000e+00 0.000000000000000000e+00 -1.640000045299530029e-01 1.944599914550781250e+01 0.000000000000000000e+00 8.200000226497650146e-02 1.010000035166740417e-01 1.942600059509277344e+01
1.886899948120117188e+01 0.000000000000000000e+00 0.000000000000000000e+00 -1.640000045299530029e-01 1.946800041198730469e+01 0.000000000000000000e+00 8.299999684095382690e-02 1.010000035166740417e-01 1.944799995422363281e+01
1.889999961853027344e+01 0.000000000000000000e+00 0.000000000000000000e+00 -1.640000045299530029e-01 1.950000000000000000e+01 0.000000000000000000e+00 8.299999684095382690e-02 1.010000035166740417e-01 1.947900009155273438e+01
1.900000000000000000e+01 0.000000000000000000e+00 0.000000000000000000e+00 -1.650000065565109253e-01 1.960199928283691406e+01 0.000000000000000000e+00 8.299999684095382690e-02 1.010000035166740417e-01 1.958200073242187500e+01
1.914200019836425781e+01 0.000000000000000000e+00 0.000000000000000000e+00 -1.659999936819076538e-01 1.975000000000000000e+01 0.000000000000000000e+00 8.399999886751174927e-02 1.019999980926513672e-01 1.972900009155273438e+01
1.902099990844726562e+01 0.000000000000000000e+00 0.000000000000000000e+00 -1.650000065565109253e-01 1.962500000000000000e+01 0.000000000000000000e+00 8.299999684095382690e-02 1.019999980926513672e-01 1.960400009155273438e+01
1.897400093078613281e+01 0.000000000000000000e+00 0.000000000000000000e+00 -1.650000065565109253e-01 1.957600021362304688e+01 0.000000000000000000e+00 8.299999684095382690e-02 1.010000035166740417e-01 1.955599975585937500e+01
1.889699935913085938e+01 0.000000000000000000e+00 0.000000000000000000e+00 -1.640000045299530029e-01 1.949699974060058594e+01 0.000000000000000000e+00 8.299999684095382690e-02 1.010000035166740417e-01 1.947699928283691406e+01
1.897400093078613281e+01 0.000000000000000000e+00 0.000000000000000000e+00 -1.650000065565109253e-01 1.957600021362304688e+01 0.000000000000000000e+00 8.299999684095382690e-02 1.010000035166740417e-01 1.955599975585937500e+01
1.897200012207031250e+01 0.000000000000000000e+00 0.000000000000000000e+00 -1.650000065565109253e-01 1.957399940490722656e+01 0.000000000000000000e+00 8.299999684095382690e-02 1.010000035166740417e-01 1.955299949645996094e+01
1.887999916076660156e+01 0.000000000000000000e+00 0.000000000000000000e+00 -1.640000045299530029e-01 1.947900009155273438e+01 0.000000000000000000e+00 8.299999684095382690e-02 1.010000035166740417e-01 1.945899963378906250e+01
1.878400039672851562e+01 0.000000000000000000e+00 0.000000000000000000e+00 -1.630000025033950806e-01 1.937899971008300781e+01 0.000000000000000000e+00 8.200000226497650146e-02 1.000000014901161194e-01 1.935899925231933594e+01
1.904700088500976562e+01 0.000000000000000000e+00 0.000000000000000000e+00 -1.650000065565109253e-01 1.965099906921386719e+01 0.000000000000000000e+00 8.299999684095382690e-02 1.019999980926513672e-01 1.962999916076660156e+01
1.888100051879882812e+01 0.000000000000000000e+00 0.000000000000000000e+00 -1.640000045299530029e-01 1.947999954223632812e+01 0.000000000000000000e+00 8.299999684095382690e-02 1.010000035166740417e-01 1.945999908447265625e+01
1.925000000000000000e+01 0.000000000000000000e+00 0.000000000000000000e+00 -1.669999957084655762e-01 1.986000061035156250e+01 0.000000000000000000e+00 8.399999886751174927e-02 1.030000001192092896e-01 1.984000015258789062e+01
1.898900032043457031e+01 0.000000000000000000e+00 0.000000000000000000e+00 -1.650000065565109253e-01 1.959199905395507812e+01 0.000000000000000000e+00 8.299999684095382690e-02 1.010000035166740417e-01 1.957099914550781250e+01
1.901399993896484375e+01 0.000000000000000000e+00 0.000000000000000000e+00 -1.650000065565109253e-01 1.961700057983398438e+01 0.000000000000000000e+00 8.299999684095382690e-02 1.019999980926513672e-01 1.959700012207031250e+01
1.897800064086914062e+01 0.000000000000000000e+00 0.000000000000000000e+00 -1.650000065565109253e-01 1.957999992370605469e+01 0.000000000000000000e+00 8.299999684095382690e-02 1.010000035166740417e-01 1.955900001525878906e+01
1.899900054931640625e+01 0.000000000000000000e+00 0.000000000000000000e+00 -1.650000065565109253e-01 1.960199928283691406e+01 0.000000000000000000e+00 8.299999684095382690e-02 1.010000035166740417e-01 1.958200073242187500e+01
1.886100006103515625e+01 0.000000000000000000e+00 0.000000000000000000e+00 -1.640000045299530029e-01 1.945999908447265625e+01 0.000000000000000000e+00 8.299999684095382690e-02 1.010000035166740417e-01 1.944000053405761719e+01
1.878800010681152344e+01 0.000000000000000000e+00 0.000000000000000000e+00 -1.630000025033950806e-01 1.938400077819824219e+01 0.000000000000000000e+00 8.200000226497650146e-02 1.000000014901161194e-01 1.936400032043457031e+01
1.799900054931640625e+01 0.000000000000000000e+00 0.000000000000000000e+00 -1.560000032186508179e-01 1.856999969482421875e+01 0.000000000000000000e+00 7.900000363588333130e-02 9.600000083446502686e-02 1.855100059509277344e+01
1.836100006103515625e+01 0.000000000000000000e+00 0.000000000000000000e+00 -1.589999943971633911e-01 1.894400024414062500e+01 0.000000000000000000e+00 7.999999821186065674e-02 9.799999743700027466e-02 1.892399978637695312e+01
1.844000053405761719e+01 0.000000000000000000e+00 0.000000000000000000e+00 -1.599999964237213135e-01 1.902499961853027344e+01 0.000000000000000000e+00 8.100000023841857910e-02 9.799999743700027466e-02 1.900600051879882812e+01
1.886499977111816406e+01 0.000000000000000000e+00 0.000000000000000000e+00 -1.640000045299530029e-01 1.946299934387207031e+01 0.000000000000000000e+00 8.299999684095382690e-02 1.010000035166740417e-01 1.944300079345703125e+01
1.889999961853027344e+01 0.000000000000000000e+00 0.000000000000000000e+00 -1.640000045299530029e-01 1.949900054931640625e+01 0.000000000000000000e+00 8.299999684095382690e-02 1.010000035166740417e-01 1.947900009155273438e+01
1.919700050354003906e+01 0.000000000000000000e+00 0.000000000000000000e+00 -1.669999957084655762e-01 1.980599975585937500e+01 0.000000000000000000e+00 8.399999886751174927e-02 1.019999980926513672e-01 1.978599929809570312e+01
1.920999908447265625e+01 0.000000000000000000e+00 0.000000000000000000e+00 -1.669999957084655762e-01 1.981999969482421875e+01 0.000000000000000000e+00 8.399999886751174927e-02 1.030000001192092896e-01 1.979899978637695312e+01
1.942300033569335938e+01 0.000000000000000000e+00 0.000000000000000000e+00 -1.689999997615814209e-01 2.004000091552734375e+01 0.000000000000000000e+00 8.500000089406967163e-02 1.040000021457672119e-01 2.001899909973144531e+01
1.946800041198730469e+01 0.000000000000000000e+00 0.000000000000000000e+00 -1.689999997615814209e-01 2.008600044250488281e+01 0.000000000000000000e+00 8.500000089406967163e-02 1.040000021457672119e-01 2.006500053405761719e+01
1.944700050354003906e+01 0.000000000000000000e+00 0.000000000000000000e+00 -1.689999997615814209e-01 2.006399917602539062e+01 0.000000000000000000e+00 8.500000089406967163e-02 1.040000021457672119e-01 2.004299926757812500e+01
1.947299957275390625e+01 0.000000000000000000e+00 0.000000000000000000e+00 -1.689999997615814209e-01 2.009099960327148438e+01 0.000000000000000000e+00 8.500000089406967163e-02 1.040000021457672119e-01 2.006999969482421875e+01
1.954299926757812500e+01 0.000000000000000000e+00 0.000000000000000000e+00 -1.700000017881393433e-01 2.016300010681152344e+01 0.000000000000000000e+00 8.600000292062759399e-02 1.040000021457672119e-01 2.014200019836425781e+01
1.954599952697753906e+01 0.000000000000000000e+00 0.000000000000000000e+00 -1.700000017881393433e-01 2.016600036621093750e+01 0.000000000000000000e+00 8.600000292062759399e-02 1.040000021457672119e-01 2.014500045776367188e+01
1.945899963378906250e+01 0.000000000000000000e+00 0.000000000000000000e+00 -1.689999997615814209e-01 2.007600021362304688e+01 0.000000000000000000e+00 8.500000089406967163e-02 1.040000021457672119e-01 2.005500030517578125e+01
1.958600044250488281e+01 0.000000000000000000e+00 0.000000000000000000e+00 -1.700000017881393433e-01 2.020800018310546875e+01 0.000000000000000000e+00 8.600000292062759399e-02 1.049999967217445374e-01 2.018700027465820312e+01
1.951399993896484375e+01 0.000000000000000000e+00 0.000000000000000000e+00 -1.689999997615814209e-01 2.013299942016601562e+01 0.000000000000000000e+00 8.500000089406967163e-02 1.040000021457672119e-01 2.011199951171875000e+01
1.950399971008300781e+01 0.000000000000000000e+00 0.000000000000000000e+00 -1.689999997615814209e-01 2.012299919128417969e+01 0.000000000000000000e+00 8.500000089406967163e-02 1.040000021457672119e-01 2.010199928283691406e+01
1.935799980163574219e+01 0.000000000000000000e+00 0.000000000000000000e+00 -1.679999977350234985e-01 1.997200012207031250e+01 0.000000000000000000e+00 8.500000089406967163e-02 1.030000001192092896e-01 1.995199966430664062e+01
1.952599906921386719e+01 0.000000000000000000e+00 0.000000000000000000e+00 -1.700000017881393433e-01 2.014500045776367188e+01 0.000000000000000000e+00 8.500000089406967163e-02 1.040000021457672119e-01 2.012400054931640625e+01
1.975499916076660156e+01 0.000000000000000000e+00 0.000000000000000000e+00 -1.720000058412551880e-01 2.038199996948242188e+01 0.000000000000000000e+00 8.600000292062759399e-02 1.049999967217445374e-01 2.036100006103515625e+01
1.966699981689453125e+01 0.000000000000000000e+00 0.000000000000000000e+00 -1.710000038146972656e-01 2.029100036621093750e+01 0.000000000000000000e+00 8.600000292062759399e-02 1.049999967217445374e-01 2.027000045776367188e+01
1.934300041198730469e+01 0.000000000000000000e+00 0.000000000000000000e+00 -1.679999977350234985e-01 1.995599937438964844e+01 0.000000000000000000e+00 8.500000089406967163e-02 1.030000001192092896e-01 1.993600082397460938e+01
1.954100036621093750e+01 0.000000000000000000e+00 0.000000000000000000e+00 -1.700000017881393433e-01 2.016099929809570312e+01 0.000000000000000000e+00 8.600000292062759399e-02 1.040000021457672119e-01 2.013999938964843750e+01
1.772500038146972656e+01 0.000000000000000000e+00 0.000000000000000000e+00 -1.539999991655349731e-01 1.828700065612792969e+01 0.000000000000000000e+00 7.800000160932540894e-02 9.499999880790710449e-02 1.826799964904785156e+01
1.794799995422363281e+01 0.000000000000000000e+00 0.000000000000000000e+00 -1.560000032186508179e-01 1.851700019836425781e+01 0.000000000000000000e+00 7.900000363588333130e-02 9.600000083446502686e-02 1.849799919128417969e+01
1.830999946594238281e+01 0.000000000000000000e+00 0.000000000000000000e+00 -1.589999943971633911e-01 1.889100074768066406e+01 0.000000000000000000e+00 7.999999821186065674e-02 9.799999743700027466e-02 1.887100028991699219e+01
1.830100059509277344e+01 0.000000000000000000e+00 0.000000000000000000e+00 -1.589999943971633911e-01 1.888199996948242188e+01 0.000000000000000000e+00 7.999999821186065674e-02 9.799999743700027466e-02 1.886199951171875000e+01
1.896699905395507812e+01 0.000000000000000000e+00 0.000000000000000000e+00 -1.650000065565109253e-01 1.956900024414062500e+01 0.000000000000000000e+00 8.299999684095382690e-02 1.010000035166740417e-01 1.954899978637695312e+01
1.896299934387207031e+01 0.000000000000000000e+00 0.000000000000000000e+00 -1.650000065565109253e-01 1.956500053405761719e+01 0.000000000000000000e+00 8.299999684095382690e-02 1.010000035166740417e-01 1.954400062561035156e+01
1.933200073242187500e+01 0.000000000000000000e+00 0.000000000000000000e+00 -1.679999977350234985e-01 1.994499969482421875e+01 0.000000000000000000e+00 8.500000089406967163e-02 1.030000001192092896e-01 1.992399978637695312e+01
1.925499916076660156e+01 0.000000000000000000e+00 0.000000000000000000e+00 -1.669999957084655762e-01 1.986599922180175781e+01 0.000000000000000000e+00 8.399999886751174927e-02 1.030000001192092896e-01 1.984499931335449219e+01
1.919599914550781250e+01 0.000000000000000000e+00 0.000000000000000000e+00 -1.669999957084655762e-01 1.980500030517578125e+01 0.000000000000000000e+00 8.399999886751174927e-02 1.019999980926513672e-01 1.978499984741210938e+01
1.926899909973144531e+01 0.000000000000000000e+00 0.000000000000000000e+00 -1.669999957084655762e-01 1.987999916076660156e+01 0.000000000000000000e+00 8.399999886751174927e-02 1.030000001192092896e-01 1.986000061035156250e+01
1.921100044250488281e+01 0.000000000000000000e+00 0.000000000000000000e+00 -1.669999957084655762e-01 1.982099914550781250e+01 0.000000000000000000e+00 8.399999886751174927e-02 1.030000001192092896e-01 1.979999923706054688e+01
1.926700019836425781e+01 0.000000000000000000e+00 0.000000000000000000e+00 -1.669999957084655762e-01 1.987800025939941406e+01 0.000000000000000000e+00 8.399999886751174927e-02 1.030000001192092896e-01 1.985700035095214844e+01
1.933799934387207031e+01 0.000000000000000000e+00 0.000000000000000000e+00 -1.679999977350234985e-01 1.995100021362304688e+01 0.000000000000000000e+00 8.500000089406967163e-02 1.030000001192092896e-01 1.993099975585937500e+01
1.908300018310546875e+01 0.000000000000000000e+00 0.000000000000000000e+00 -1.659999936819076538e-01 1.968799972534179688e+01 0.000000000000000000e+00 8.399999886751174927e-02 1.019999980926513672e-01 1.966699981689453125e+01
1.905500030517578125e+01 0.000000000000000000e+00 0.000000000000000000e+00 -1.650000065565109253e-01 1.965999984741210938e+01 0.000000000000000000e+00 8.299999684095382690e-02 1.019999980926513672e-01 1.963899993896484375e+01
1.924300003051757812e+01 0.000000000000000000e+00 0.000000000000000000e+00 -1.669999957084655762e-01 1.985300064086914062e+01 0.000000000000000000e+00 8.399999886751174927e-02 1.030000001192092896e-01 1.983200073242187500e+01
1.772500038146972656e+01 0.000000000000000000e+00 0.000000000000000000e+00 -1.539999991655349731e-01 1.828700065612792969e+01 0.000000000000000000e+00 7.800000160932540894e-02 9.499999880790710449e-02 1.826799964904785156e+01
1.795000076293945312e+01 0.000000000000000000e+00 0.000000000000000000e+00 -1.560000032186508179e-01 1.852000045776367188e+01 0.000000000000000000e+00 7.900000363588333130e-02 9.600000083446502686e-02 1.850000000000000000e+01
1.861300086975097656e+01 0.000000000000000000e+00 0.000000000000000000e+00 -1.620000004768371582e-01 1.920400047302246094e+01 0.000000000000000000e+00 8.100000023841857910e-02 9.899999946355819702e-02 1.918400001525878906e+01
1.867200088500976562e+01 0.000000000000000000e+00 0.000000000000000000e+00 -1.620000004768371582e-01 1.926399993896484375e+01 0.000000000000000000e+00 8.200000226497650146e-02 1.000000014901161194e-01 1.924399948120117188e+01
1.894899940490722656e+01 0.000000000000000000e+00 0.000000000000000000e+00 -1.650000065565109253e-01 1.954999923706054688e+01 0.000000000000000000e+00 8.299999684095382690e-02 1.010000035166740417e-01 1.953000068664550781e+01
1.910899925231933594e+01 0.000000000000000000e+00 0.000000000000000000e+00 -1.659999936819076538e-01 1.971500015258789062e+01 0.000000000000000000e+00 8.399999886751174927e-02 1.019999980926513672e-01 1.969499969482421875e+01
1.941099929809570312e+01 0.000000000000000000e+00 0.000000000000000000e+00 -1.689999997615814209e-01 2.002700042724609375e+01 0.000000000000000000e+00 8.500000089406967163e-02 1.040000021457672119e-01 2.000600051879882812e+01
1.976300048828125000e+01 0.000000000000000000e+00 0.000000000000000000e+00 -1.720000058412551880e-01 2.038999938964843750e+01 0.000000000000000000e+00 8.600000292062759399e-02 1.059999987483024597e-01 2.036899948120117188e+01
1.939800071716308594e+01 0.000000000000000000e+00 0.000000000000000000e+00 -1.679999977350234985e-01 2.001399993896484375e+01 0.000000000000000000e+00 8.500000089406967163e-02 1.040000021457672119e-01 1.999300003051757812e+01
1.948900032043457031e+01 0.000000000000000000e+00 0.000000000000000000e+00 -1.689999997615814209e-01 2.010700035095214844e+01 0.000000000000000000e+00 8.500000089406967163e-02 1.040000021457672119e-01 2.008600044250488281e+01
1.942399978637695312e+01 0.000000000000000000e+00 0.000000000000000000e+00 -1.689999997615814209e-01 2.004100036621093750e+01 0.000000000000000000e+00 8.500000089406967163e-02 1.040000021457672119e-01 2.002000045776367188e+01
1.960600090026855469e+01 0.000000000000000000e+00 0.000000000000000000e+00 -1.700000017881393433e-01 2.022800064086914062e+01 0.000000000000000000e+00 8.600000292062759399e-02 1.049999967217445374e-01 2.020700073242187500e+01
1.970199966430664062e+01 0.000000000000000000e+00 0.000000000000000000e+00 -1.710000038146972656e-01 2.032699966430664062e+01 0.000000000000000000e+00 8.600000292062759399e-02 1.049999967217445374e-01 2.030599975585937500e+01
2.001300048828125000e+01 0.000000000000000000e+00 0.000000000000000000e+00 -1.739999949932098389e-01 2.064800071716308594e+01 0.000000000000000000e+00 8.799999952316284180e-02 1.070000007748603821e-01 2.062599945068359375e+01
2.007799911499023438e+01 0.000000000000000000e+00 0.000000000000000000e+00 -1.739999949932098389e-01 2.071500015258789062e+01 0.000000000000000000e+00 8.799999952316284180e-02 1.070000007748603821e-01 2.069400024414062500e+01
1.996699905395507812e+01 0.000000000000000000e+00 0.000000000000000000e+00 -1.729999929666519165e-01 2.060000038146972656e+01 0.000000000000000000e+00 8.699999749660491943e-02 1.070000007748603821e-01 2.057900047302246094e+01
1.965699958801269531e+01 0.000000000000000000e+00 0.000000000000000000e+00 -1.710000038146972656e-01 2.028100013732910156e+01 0.000000000000000000e+00 8.600000292062759399e-02 1.049999967217445374e-01 2.026000022888183594e+01
1.978100013732910156e+01 0.000000000000000000e+00 0.000000000000000000e+00 -1.720000058412551880e-01 2.040900039672851562e+01 0.000000000000000000e+00 8.699999749660491943e-02 1.059999987483024597e-01 2.038699913024902344e+01
1.977300071716308594e+01 0.000000000000000000e+00 0.000000000000000000e+00 -1.720000058412551880e-01 2.039999961853027344e+01 0.000000000000000000e+00 8.699999749660491943e-02 1.059999987483024597e-01 2.037899971008300781e+01
1.939599990844726562e+01 0.000000000000000000e+00 0.000000000000000000e+00 -1.679999977350234985e-01 2.001099967956542969e+01 0.000000000000000000e+00 8.500000089406967163e-02 1.040000021457672119e-01 1.998999977111816406e+01
1.972100067138671875e+01 0.000000000000000000e+00 0.000000000000000000e+00 -1.710000038146972656e-01 2.034700012207031250e+01 0.000000000000000000e+00 8.600000292062759399e-02 1.049999967217445374e-01 2.032600021362304688e+01
1.974399948120117188e+01 0.000000000000000000e+00 0.000000000000000000e+00 -1.710000038146972656e-01 2.037100028991699219e+01 0.000000000000000000e+00 8.600000292062759399e-02 1.049999967217445374e-01 2.035000038146972656e+01
1.963699913024902344e+01 0.000000000000000000e+00 0.000000000000000000e+00 -1.700000017881393433e-01 2.026000022888183594e+01 0.000000000000000000e+00 8.600000292062759399e-02 1.049999967217445374e-01 2.023900032043457031e+01
1.772500038146972656e+01 0.000000000000000000e+00 0.000000000000000000e+00 -1.539999991655349731e-01 1.828700065612792969e+01 0.000000000000000000e+00 7.800000160932540894e-02 9.499999880790710449e-02 1.826799964904785156e+01
1.851899909973144531e+01 0.000000000000000000e+00 0.000000000000000000e+00 -1.609999984502792358e-01 1.910600090026855469e+01 0.000000000000000000e+00 8.100000023841857910e-02 9.899999946355819702e-02 1.908600044250488281e+01
1.943700027465820312e+01 0.000000000000000000e+00 0.000000000000000000e+00 -1.689999997615814209e-01 2.005400085449218750e+01 0.000000000000000000e+00 8.500000089406967163e-02 1.040000021457672119e-01 2.003300094604492188e+01
1.944199943542480469e+01 0.000000000000000000e+00 0.000000000000000000e+00 -1.689999997615814209e-01 2.005900001525878906e+01 0.000000000000000000e+00 8.500000089406967163e-02 1.040000021457672119e-01 2.003800010681152344e+01
1.933399963378906250e+01 0.000000000000000000e+00 0.000000000000000000e+00 -1.679999977350234985e-01 1.994799995422363281e+01 0.000000000000000000e+00 8.500000089406967163e-02 1.030000001192092896e-01 1.992700004577636719e+01
1.921100044250488281e+01 0.000000000000000000e+00 0.000000000000000000e+00 -1.669999957084655762e-01 1.981999969482421875e+01 0.000000000000000000e+00 8.399999886751174927e-02 1.030000001192092896e-01 1.979899978637695312e+01
1.927499961853027344e+01 0.000000000000000000e+00 0.000000000000000000e+00 -1.669999957084655762e-01 1.988699913024902344e+01 0.000000000000000000e+00 8.399999886751174927e-02 1.030000001192092896e-01 1.986599922180175781e+01
1.949799919128417969e+01 0.000000000000000000e+00 0.000000000000000000e+00 -1.689999997615814209e-01 2.011599922180175781e+01 0.000000000000000000e+00 8.500000089406967163e-02 1.040000021457672119e-01 2.009499931335449219e+01
1.988400077819824219e+01 0.000000000000000000e+00 0.000000000000000000e+00 -1.729999929666519165e-01 2.051499938964843750e+01 0.000000000000000000e+00 8.699999749660491943e-02 1.059999987483024597e-01 2.049300003051757812e+01
1.953199958801269531e+01 0.000000000000000000e+00 0.000000000000000000e+00 -1.700000017881393433e-01 2.015200042724609375e+01 0.000000000000000000e+00 8.500000089406967163e-02 1.040000021457672119e-01 2.013100051879882812e+01
1.974799919128417969e+01 0.000000000000000000e+00 0.000000000000000000e+00 -1.710000038146972656e-01 2.037500000000000000e+01 0.000000000000000000e+00 8.600000292062759399e-02 1.049999967217445374e-01 2.035400009155273438e+01
1.981800079345703125e+01 0.000000000000000000e+00 0.000000000000000000e+00 -1.720000058412551880e-01 2.044700050354003906e+01 0.000000000000000000e+00 8.699999749660491943e-02 1.059999987483024597e-01 2.042600059509277344e+01
1.986100006103515625e+01 0.000000000000000000e+00 0.000000000000000000e+00 -1.720000058412551880e-01 2.049099922180175781e+01 0.000000000000000000e+00 8.699999749660491943e-02 1.059999987483024597e-01 2.046999931335449219e+01