-6.244278906250000000e+04
-6.240501953125000000e+04
-6.239848046875000000e+04
-6.238675000000000000e+04
-6.237705078125000000e+04
-6.237955468750000000e+04
-6.237709765625000000e+04
-6.237455468750000000e+04
-6.237499609375000000e+04
-6.237107421875000000e+04
-6.237200390625000000e+04
-6.237274609375000000e+04
-6.237217578125000000e+04
-6.237318359375000000e+04
-6.236611328125000000e+04
-6.236636718750000000e+04
-6.236957812500000000e+04
-6.237592968750000000e+04
-6.237467968750000000e+04
-6.237244921875000000e+04
-6.236020703125000000e+04
-6.236449609375000000e+04
-6.236629687500000000e+04
-6.237439453125000000e+04
-6.236691015625000000e+04
-6.236883203125000000e+04
-6.237541015625000000e+04
-6.236853515625000000e+04
-6.236290625000000000e+04
-6.244278906250000000e+04
-6.241103515625000000e+04
-6.239412500000000000e+04
-6.238189453125000000e+04
-6.237842187500000000e+04
-6.237338671875000000e+04
-6.237313671875000000e+04
-6.237367578125000000e+04
-6.237733203125000000e+04
-6.237024609375000000e+04
-6.237262109375000000e+04
-6.236602343750000000e+04
-6.237273046875000000e+04
-6.237101953125000000e+04
-6.237560546875000000e+04
-6.237166015625000000e+04
-6.236894531250000000e+04
-6.237383984375000000e+04
-6.237506640625000000e+04
-6.237018750000000000e+04
-6.237405468750000000e+04
-6.236524609375000000e+04
-6.237055468750000000e+04
-6.236871093750000000e+04
-6.236810156250000000e+04
-6.236641015625000000e+04
-6.237437890625000000e+04
-6.237417968750000000e+04
-6.240404296875000000e+04
-6.240267968750000000e+04
-6.239415234375000000e+04
-6.236934375000000000e+04
-6.236542968750000000e+04
-6.236399218750000000e+04
-6.236458203125000000e+04
-6.236557421875000000e+04
-6.236250000000000000e+04
-6.236329687500000000e+04
-6.235816015625000000e+04
-6.235333984375000000e+04
-6.236022656250000000e+04
-6.236332031250000000e+04
-6.236012109375000000e+04
-6.235672656250000000e+04
-6.235415625000000000e+04
-6.235718359375000000e+04
-6.235517968750000000e+04
-6.235283593750000000e+04
-6.235337500000000000e+04
-6.236033593750000000e+04
-6.236293750000000000e+04
-6.244278906250000000e+04
-6.240841406250000000e+04
-6.239662500000000000e+04
-6.238671093750000000e+04
-6.236371093750000000e+04
-6.236459375000000000e+04
-6.236057812500000000e+04
-6.236780468750000000e+04
-6.236287500000000000e+04
-6.236542968750000000e+04
-6.236196484375000000e+04
-6.235983984375000000e+04
-6.236161718750000000e+04
-6.236551953125000000e+04
-6.236403906250000000e+04
-6.236536718750000000e+04
-6.244278906250000000e+04
-6.240139453125000000e+04
-6.238648437500000000e+04
-6.237657812500000000e+04
-6.236382812500000000e+04
-6.235723437500000000e+04
-6.234974609375000000e+04
-6.235178125000000000e+04
-6.235349218750000000e+04
-6.234936718750000000e+04
-6.235411328125000000e+04
-6.235180078125000000e+04
-6.234784375000000000e+04
-6.234553125000000000e+04
-6.234245312500000000e+04
-6.234371875000000000e+04
-6.234633203125000000e+04
-6.234035937500000000e+04
-6.233998828125000000e+04
-6.234234765625000000e+04
-6.234064843750000000e+04
-6.233582031250000000e+04
-6.233543750000000000e+04
-6.244278906250000000e+04
-6.237820703125000000e+04
-6.234825000000000000e+04
-6.235473437500000000e+04
-6.235212890625000000e+04
-6.235499609375000000e+04
-6.234931640625000000e+04
-6.234580078125000000e+04
-6.234527734375000000e+04
-6.234565234375000000e+04
-6.234646875000000000e+04
-6.234030859375000000e+04
-6.234058593750000000e+04
-6.234222656250000000e+04
-6.234348828125000000e+04
-6.234607812500000000e+04
-6.234588671875000000e+04
-6.234046875000000000e+04
-6.234486718750000000e+04
-6.234552343750000000e+04
-6.241351562500000000e+04
-6.240471875000000000e+04
-6.239765234375000000e+04
-6.237884375000000000e+04
-6.237972656250000000e+04
-6.238184765625000000e+04
-6.237580078125000000e+04
-6.237366406250000000e+04
-6.237333984375000000e+04
-6.237410546875000000e+04
-6.237085937500000000e+04
-6.237842578125000000e+04
-6.237356640625000000e+04
-6.237565625000000000e+04
-6.237647265625000000e+04
-6.237266796875000000e+04
-6.237742578125000000e+04
-6.237228125000000000e+04
-6.236759375000000000e+04
-6.237085156250000000e+04
-6.237230859375000000e+04
-6.240671875000000000e+04
-6.239761328125000000e+04
-6.238304687500000000e+04
-6.238039062500000000e+04
-6.237022656250000000e+04
-6.237259765625000000e+04
-6.237633203125000000e+04
-6.237610546875000000e+04
-6.237159375000000000e+04
-6.237576171875000000e+04
-6.237739843750000000e+04
-6.237517578125000000e+04
-6.237120312500000000e+04
-6.237329687500000000e+04
-6.237273046875000000e+04
-6.237743359375000000e+04
-6.237662109375000000e+04
-6.237283203125000000e+04
-6.237750390625000000e+04
-6.237393359375000000e+04
-6.237241406250000000e+04
-6.237066406250000000e+04
-6.237258984375000000e+04
-6.236687500000000000e+04
-6.236792578125000000e+04
-6.237373828125000000e+04
-6.244216406250000000e+04
-6.240217968750000000e+04
-6.239142578125000000e+04
-6.238603125000000000e+04
-6.236489453125000000e+04
-6.236166796875000000e+04
-6.236654296875000000e+04
-6.235790625000000000e+04
-6.236340625000000000e+04
-6.236798828125000000e+04
-6.236516406250000000e+04
-6.236244921875000000e+04
-6.236003906250000000e+04
-6.235920703125000000e+04
-6.236577343750000000e+04
-6.236301562500000000e+04
-6.236007421875000000e+04
-6.234887890625000000e+04
-6.235453515625000000e+04
-6.235778906250000000e+04
-6.236078906250000000e+04
-6.235338281250000000e+04
-6.235365234375000000e+04
-6.235393359375000000e+04
-6.235734765625000000e+04
-6.235261328125000000e+04
-6.235590234375000000e+04
-6.238652343750000000e+04
-6.236697265625000000e+04
-6.236593359375000000e+04
-6.236846875000000000e+04
-6.236760937500000000e+04
-6.236707421875000000e+04
-6.236539062500000000e+04
-6.235714453125000000e+04
-6.235940234375000000e+04
-6.236021875000000000e+04
-6.235801953125000000e+04
-6.235359375000000000e+04
-6.235437109375000000e+04
-6.235840234375000000e+04
-6.235769531250000000e+04
-6.235175390625000000e+04
-6.235300390625000000e+04
-6.244216406250000000e+04
-6.239816406250000000e+04
-6.238992187500000000e+04
-6.236111328125000000e+04
-6.234959375000000000e+04
-6.235586328125000000e+04
-6.235305468750000000e+04
-6.235733593750000000e+04
-6.235131640625000000e+04
-6.234783203125000000e+04
-6.234739843750000000e+04
-6.235149218750000000e+04
-6.234479687500000000e+04
-6.234403906250000000e+04
-6.234343750000000000e+04
-6.234791015625000000e+04
-6.234682421875000000e+04
-6.234894921875000000e+04
-6.234597265625000000e+04
-6.234941015625000000e+04
-6.234808203125000000e+04
-6.233941796875000000e+04
-6.233733203125000000e+04
-6.234335937500000000e+04
-6.234496093750000000e+04
-6.239823828125000000e+04
-6.238811328125000000e+04
-6.238302343750000000e+04
-6.236026171875000000e+04
-6.235626953125000000e+04
-6.235500781250000000e+04
-6.235633984375000000e+04
-6.234838281250000000e+04
-6.234637890625000000e+04
-6.234670703125000000e+04
-6.234264062500000000e+04
-6.234782421875000000e+04
-6.234457031250000000e+04
-6.234214062500000000e+04
-6.234914062500000000e+04
-6.234757031250000000e+04
-6.234464062500000000e+04
-6.233926953125000000e+04
-6.233873046875000000e+04
-6.234277734375000000e+04
-6.233879687500000000e+04
-6.234503906250000000e+04
-6.244164453125000000e+04
-6.239645312500000000e+04
-6.238895312500000000e+04
-6.238074609375000000e+04
-6.237572265625000000e+04
-6.237477343750000000e+04
-6.237891406250000000e+04
-6.238355078125000000e+04
-6.237898828125000000e+04
-6.237862109375000000e+04
-6.237703125000000000e+04
-6.236966406250000000e+04
-6.237857812500000000e+04
-6.237709765625000000e+04
-6.236937109375000000e+04
-6.236821484375000000e+04
-6.237317578125000000e+04
-6.237207421875000000e+04
-6.237029687500000000e+04
-6.237420703125000000e+04
-6.237343750000000000e+04
-6.237269921875000000e+04
-6.237512109375000000e+04
-6.244164453125000000e+04
-6.238740234375000000e+04
-6.237493750000000000e+04
-6.238137109375000000e+04
-6.237867968750000000e+04
-6.237748046875000000e+04
-6.237760937500000000e+04
-6.237403515625000000e+04
-6.237094531250000000e+04
-6.237412109375000000e+04
-6.237571875000000000e+04
-6.237403125000000000e+04
-6.237187890625000000e+04
-6.237178515625000000e+04
-6.237291796875000000e+04
-6.237957421875000000e+04
-6.237726171875000000e+04
-6.237400781250000000e+04
-6.236880468750000000e+04
-6.236916406250000000e+04
-6.236885937500000000e+04
-6.237843359375000000e+04
-6.237735546875000000e+04
-6.237746484375000000e+04
-6.240810156250000000e+04
-6.239358593750000000e+04
-6.238650781250000000e+04
-6.236569531250000000e+04
-6.236174609375000000e+04
-6.235841796875000000e+04
-6.236014843750000000e+04
-6.235621484375000000e+04
-6.235420312500000000e+04
-6.235396875000000000e+04
-6.236234375000000000e+04
-6.235840234375000000e+04
-6.235544140625000000e+04
-6.235135156250000000e+04
-6.235659375000000000e+04
-6.235709375000000000e+04
-6.235725000000000000e+04
-6.235698046875000000e+04
-6.235564453125000000e+04
-6.235566015625000000e+04
-6.235357031250000000e+04
-6.234970703125000000e+04
-6.234735546875000000e+04
-6.235455078125000000e+04
-6.235959765625000000e+04
-6.240397656250000000e+04
-6.240185156250000000e+04
-6.239441015625000000e+04
-6.236775781250000000e+04
-6.237282031250000000e+04
-6.236834765625000000e+04
-6.236796093750000000e+04
-6.236319140625000000e+04
-6.235977734375000000e+04
-6.235815625000000000e+04
-6.235434765625000000e+04
-6.236260937500000000e+04
-6.235772656250000000e+04
-6.235649609375000000e+04
-6.235757421875000000e+04
-6.236298437500000000e+04
-6.236196875000000000e+04
-6.235889453125000000e+04
-6.236310546875000000e+04
-6.240258984375000000e+04
-6.237555468750000000e+04
-6.235158203125000000e+04
-6.235162109375000000e+04
-6.235342578125000000e+04
-6.235044140625000000e+04
-6.235205468750000000e+04
-6.234713671875000000e+04
-6.235421484375000000e+04
-6.235444921875000000e+04
-6.234617968750000000e+04
-6.235042187500000000e+04
-6.234915625000000000e+04
-6.235017968750000000e+04
-6.234851953125000000e+04
-6.234818750000000000e+04
-6.235102343750000000e+04
-6.235530078125000000e+04
-6.235002343750000000e+04
-6.234905078125000000e+04
-6.234315234375000000e+04
-6.233934375000000000e+04
-6.233873828125000000e+04
-6.234549218750000000e+04
-6.244164453125000000e+04
-6.239655468750000000e+04
-6.238676562500000000e+04
-6.236508593750000000e+04
-6.235690234375000000e+04
-6.235162500000000000e+04
-6.234983984375000000e+04
-6.234963671875000000e+04
-6.235298046875000000e+04
-6.235641796875000000e+04
-6.234992578125000000e+04
-6.235658203125000000e+04
-6.235658984375000000e+04
-6.235444140625000000e+04
-6.235060937500000000e+04
-6.234032031250000000e+04
-6.234531640625000000e+04
-6.234541015625000000e+04
-6.234111718750000000e+04
-6.234055078125000000e+04
-6.234262109375000000e+04
-6.234304296875000000e+04
-6.233661718750000000e+04
-6.238030468750000000e+04
-6.237667968750000000e+04
-6.237977734375000000e+04
-6.237907031250000000e+04
-6.237925000000000000e+04
-6.237021875000000000e+04
-6.237133203125000000e+04
-6.236807421875000000e+04
-6.236414062500000000e+04
-6.236420703125000000e+04
-6.237359765625000000e+04
-6.236539453125000000e+04
-6.236667187500000000e+04
-6.236360937500000000e+04
-6.236101953125000000e+04
-6.244222656250000000e+04
-6.240925390625000000e+04
-6.239379296875000000e+04
-6.237600781250000000e+04
-6.237826953125000000e+04
-6.237313671875000000e+04
-6.237321484375000000e+04
-6.237589453125000000e+04
-6.237404687500000000e+04
-6.237757812500000000e+04
-6.237385937500000000e+04
-6.237371093750000000e+04
-6.237173437500000000e+04
-6.237464843750000000e+04
-6.237608984375000000e+04
-6.237603906250000000e+04
-6.236982421875000000e+04
-6.236978515625000000e+04
-6.237319531250000000e+04
-6.236977734375000000e+04
-6.236915234375000000e+04
-6.237489453125000000e+04
-6.237271875000000000e+04
-6.237378515625000000e+04
-6.244222656250000000e+04
-6.240741406250000000e+04
-6.237302343750000000e+04
-6.236583593750000000e+04
-6.236223046875000000e+04
-6.236216796875000000e+04
-6.236053125000000000e+04
-6.235819531250000000e+04
-6.235764843750000000e+04
-6.236124218750000000e+04
-6.236100781250000000e+04
-6.235765625000000000e+04
-6.235893750000000000e+04
-6.236062890625000000e+04
-6.236355859375000000e+04
-6.236096875000000000e+04
-6.236358984375000000e+04
-6.235767187500000000e+04
-6.235342187500000000e+04
-6.235098828125000000e+04
-6.235450390625000000e+04
-6.235783593750000000e+04
-6.239065234375000000e+04
-6.237082421875000000e+04
-6.235891406250000000e+04
-6.235803906250000000e+04
-6.236519140625000000e+04
-6.236414453125000000e+04
-6.236001953125000000e+04
-6.235993359375000000e+04
-6.236244531250000000e+04
-6.236287109375000000e+04
-6.235678515625000000e+04
-6.236358593750000000e+04
-6.236185156250000000e+04
-6.235678906250000000e+04
-6.235841015625000000e+04
-6.235846484375000000e+04
-6.235726953125000000e+04
-6.235168750000000000e+04
-6.235641406250000000e+04
-6.235728125000000000e+04
-6.235202734375000000e+04
-6.235512500000000000e+04
-6.235229296875000000e+04
-6.240367968750000000e+04
-6.239751171875000000e+04
-6.238357812500000000e+04
-6.238015234375000000e+04
-6.235371484375000000e+04
-6.235728515625000000e+04
-6.234786328125000000e+04
-6.234608593750000000e+04
-6.234864453125000000e+04
-6.235165234375000000e+04
-6.234673437500000000e+04
-6.234940234375000000e+04
-6.234736328125000000e+04
-6.234695703125000000e+04
-6.234954296875000000e+04
-6.235035546875000000e+04
-6.235022656250000000e+04
-6.234886328125000000e+04
-6.235041015625000000e+04
-6.234273437500000000e+04
-6.234592187500000000e+04
-6.234405078125000000e+04
-6.235087500000000000e+04
-6.234673437500000000e+04
-6.234578515625000000e+04
-6.244222656250000000e+04
-6.238862890625000000e+04
-6.238185156250000000e+04
-6.237073046875000000e+04
-6.236444531250000000e+04
-6.235008203125000000e+04
-6.234635156250000000e+04
-6.234407031250000000e+04
-6.234392187500000000e+04
-6.234551953125000000e+04
-6.234665625000000000e+04
-6.234014453125000000e+04
-6.234256250000000000e+04
-6.234338671875000000e+04
-6.234576953125000000e+04
-6.234480468750000000e+04
-6.233643750000000000e+04
-6.233619531250000000e+04
-6.234176562500000000e+04
-6.234171875000000000e+04
-6.234210156250000000e+04
-6.233788671875000000e+04
-6.233393750000000000e+04
-6.241272265625000000e+04
-6.239998046875000000e+04
-6.237916406250000000e+04
-6.237594140625000000e+04
-6.236912500000000000e+04
-6.237314843750000000e+04
-6.237311718750000000e+04
-6.237148437500000000e+04
-6.237446093750000000e+04
-6.237184375000000000e+04
-6.237544531250000000e+04
-6.237428906250000000e+04
-6.237275000000000000e+04
-6.237294140625000000e+04
-6.236782421875000000e+04
-6.236725390625000000e+04
-6.236659375000000000e+04
-6.237892578125000000e+04
-6.237674218750000000e+04
-6.240827343750000000e+04
-6.240032031250000000e+04
-6.236839843750000000e+04
-6.237535546875000000e+04
-6.237628906250000000e+04
-6.237436328125000000e+04
-6.237359375000000000e+04
-6.237264453125000000e+04
-6.236960937500000000e+04
-6.237322656250000000e+04
-6.236966796875000000e+04
-6.237087890625000000e+04
-6.237381250000000000e+04
-6.237513281250000000e+04
-6.237551562500000000e+04
-6.237253125000000000e+04
-6.237346093750000000e+04
-6.240522656250000000e+04
-6.240203515625000000e+04
-6.239459375000000000e+04
-6.239023828125000000e+04
-6.235607812500000000e+04
-6.236133203125000000e+04
-6.235832031250000000e+04
-6.235815625000000000e+04
-6.236112109375000000e+04
-6.235686718750000000e+04
-6.235841406250000000e+04
-6.236137500000000000e+04
-6.235919140625000000e+04
-6.235487500000000000e+04
-6.236457031250000000e+04
-6.235874218750000000e+04
-6.235826562500000000e+04
-6.236046484375000000e+04
-6.236041406250000000e+04
-6.235834765625000000e+04
-6.235421093750000000e+04
-6.236043750000000000e+04
-6.236053906250000000e+04
-6.235842968750000000e+04
-6.244375000000000000e+04
-6.236019140625000000e+04
-6.236277343750000000e+04
-6.236487890625000000e+04
-6.236462109375000000e+04
-6.236429687500000000e+04
-6.236519531250000000e+04
-6.236139062500000000e+04
-6.236262890625000000e+04
-6.235718359375000000e+04
-6.235779687500000000e+04
-6.235993750000000000e+04
-6.236355078125000000e+04
-6.236329687500000000e+04
-6.236393359375000000e+04
-6.240388281250000000e+04
-6.239606250000000000e+04
-6.236989453125000000e+04
-6.235168750000000000e+04
-6.235133593750000000e+04
-6.235605468750000000e+04
-6.235787500000000000e+04
-6.234691406250000000e+04
-6.234853515625000000e+04
-6.234971484375000000e+04
-6.235368359375000000e+04
-6.234553906250000000e+04
-6.234504687500000000e+04
-6.235266406250000000e+04
-6.235112890625000000e+04
-6.234301171875000000e+04
-6.234041015625000000e+04
-6.234116015625000000e+04
-6.234630859375000000e+04
-6.235147656250000000e+04
-6.233538281250000000e+04
-6.234115625000000000e+04
-6.234289062500000000e+04
-6.244375000000000000e+04
-6.238962890625000000e+04
-6.237006640625000000e+04
-6.236378515625000000e+04
-6.235408203125000000e+04
-6.234712500000000000e+04
-6.235584765625000000e+04
-6.235926953125000000e+04
-6.235262890625000000e+04
-6.235153515625000000e+04
-6.234603906250000000e+04
-6.235489453125000000e+04
-6.234963281250000000e+04
-6.234781640625000000e+04
-6.233914453125000000e+04
-6.234514062500000000e+04
-6.234191406250000000e+04
-6.233910937500000000e+04
-6.233714062500000000e+04
-6.233392187500000000e+04
-6.233425390625000000e+04
-6.234112500000000000e+04
-6.234293359375000000e+04
-6.234141406250000000e+04
-6.234101953125000000e+04
-6.233841796875000000e+04
-6.244065234375000000e+04
-6.240854687500000000e+04
-6.239931640625000000e+04
-6.239240234375000000e+04
-6.238131640625000000e+04
-6.237841796875000000e+04
-6.237616406250000000e+04
-6.237311718750000000e+04
-6.237166796875000000e+04
-6.237299218750000000e+04
-6.237426562500000000e+04
-6.237517187500000000e+04
-6.237302734375000000e+04
-6.236896875000000000e+04
-6.236910156250000000e+04
-6.237069531250000000e+04
-6.236933203125000000e+04
-6.237382421875000000e+04
-6.236726953125000000e+04
-6.236860546875000000e+04
-6.236881250000000000e+04
-6.236697656250000000e+04
-6.237224218750000000e+04
-6.236897656250000000e+04
-6.236745312500000000e+04
-6.236668359375000000e+04
-6.236906640625000000e+04
-6.236987500000000000e+04
-6.237057812500000000e+04
-6.238519921875000000e+04
-6.238239062500000000e+04
-6.238025781250000000e+04
-6.237954296875000000e+04
-6.237829296875000000e+04
-6.237887890625000000e+04
-6.238051562500000000e+04
-6.237357812500000000e+04
-6.237513671875000000e+04
-6.237424218750000000e+04
-6.237335546875000000e+04
-6.237403125000000000e+04
-6.238096484375000000e+04
-6.237635546875000000e+04
-6.237772265625000000e+04
-6.237666406250000000e+04
-6.238130468750000000e+04
-6.237558593750000000e+04
-6.237851171875000000e+04
-6.237530078125000000e+04
-6.236904687500000000e+04
-6.236995312500000000e+04
-6.237207031250000000e+04
-6.236811328125000000e+04
-6.237125000000000000e+04
-6.237396875000000000e+04
-6.244065234375000000e+04
-6.239096875000000000e+04
-6.236443359375000000e+04
-6.236303515625000000e+04
-6.236394140625000000e+04
-6.236217968750000000e+04
-6.236352343750000000e+04
-6.235871484375000000e+04
-6.236894921875000000e+04
-6.236349218750000000e+04
-6.235575390625000000e+04
-6.235875000000000000e+04
-6.235857812500000000e+04
-6.236215625000000000e+04
-6.236316406250000000e+04
-6.236249609375000000e+04
-6.236214062500000000e+04
-6.236199609375000000e+04
-6.236748828125000000e+04
-6.236368359375000000e+04
-6.236149609375000000e+04
-6.236085937500000000e+04
-6.236183593750000000e+04
-6.244065234375000000e+04
-6.240612109375000000e+04
-6.240241015625000000e+04
-6.239157812500000000e+04
-6.237603906250000000e+04
-6.236907812500000000e+04
-6.236720312500000000e+04
-6.235726562500000000e+04
-6.236100781250000000e+04
-6.236816015625000000e+04
-6.237310546875000000e+04
-6.236158593750000000e+04
-6.236728515625000000e+04
-6.236609765625000000e+04
-6.236622265625000000e+04
-6.235695703125000000e+04
-6.236204296875000000e+04
-6.235860546875000000e+04
-6.236750390625000000e+04
-6.236494531250000000e+04
-6.236646875000000000e+04
-6.236024609375000000e+04
-6.236058984375000000e+04
-6.236484375000000000e+04
-6.236680468750000000e+04
-6.236357031250000000e+04
-6.235962890625000000e+04
-6.239897656250000000e+04
-6.237796093750000000e+04
-6.236121093750000000e+04
-6.235053906250000000e+04
-6.235580859375000000e+04
-6.234904296875000000e+04
-6.235214062500000000e+04
-6.234754296875000000e+04
-6.235052343750000000e+04
-6.234104296875000000e+04
-6.234238281250000000e+04
-6.234269531250000000e+04
-6.234777734375000000e+04
-6.234535546875000000e+04
-6.234127343750000000e+04
-6.234373437500000000e+04
-6.234213281250000000e+04
-6.234173046875000000e+04
-6.233873046875000000e+04
-6.240045312500000000e+04
-6.237789062500000000e+04
-6.235649609375000000e+04
-6.235790625000000000e+04
-6.235582031250000000e+04
-6.234864843750000000e+04
-6.234775781250000000e+04
-6.235055468750000000e+04
-6.234825781250000000e+04
-6.235014843750000000e+04
-6.235260546875000000e+04
-6.234495312500000000e+04
-6.235017578125000000e+04
-6.234378515625000000e+04
-6.234406250000000000e+04
-6.234491015625000000e+04
-6.235188671875000000e+04
-6.235038671875000000e+04
-6.235107421875000000e+04
-6.234578515625000000e+04
-6.234089843750000000e+04
-6.244273046875000000e+04
-6.240497656250000000e+04
-6.237626171875000000e+04
-6.237498437500000000e+04
-6.237374218750000000e+04
-6.238078906250000000e+04
-6.237110156250000000e+04
-6.237303515625000000e+04
-6.237135937500000000e+04
-6.237104687500000000e+04
-6.237481640625000000e+04
-6.237314062500000000e+04
-6.237096093750000000e+04
-6.237705468750000000e+04
-6.237488671875000000e+04
-6.236880859375000000e+04
-6.237835937500000000e+04
-6.236836328125000000e+04
-6.244273046875000000e+04
-6.240923828125000000e+04
-6.240088281250000000e+04
-6.237879296875000000e+04
-6.237888671875000000e+04
-6.237905468750000000e+04
-6.237155859375000000e+04
-6.237494531250000000e+04
-6.237375390625000000e+04
-6.237967968750000000e+04
-6.237893750000000000e+04
-6.237573437500000000e+04
-6.237017187500000000e+04
-6.237286718750000000e+04
-6.237484375000000000e+04
-6.237626953125000000e+04
-6.237667187500000000e+04
-6.237482421875000000e+04
-6.237140625000000000e+04
-6.236729296875000000e+04
-6.236989062500000000e+04
-6.237188671875000000e+04
-6.239248046875000000e+04
-6.238642968750000000e+04
-6.236903906250000000e+04
-6.236622265625000000e+04
-6.236301171875000000e+04
-6.235997265625000000e+04
-6.235922656250000000e+04
-6.235816406250000000e+04
-6.236165625000000000e+04
-6.236583593750000000e+04
-6.236046875000000000e+04
-6.236200000000000000e+04
-6.236125390625000000e+04
-6.236330078125000000e+04
-6.236494140625000000e+04
-6.235673828125000000e+04
-6.236505859375000000e+04
-6.236102343750000000e+04
-6.236129296875000000e+04
-6.240680078125000000e+04
-6.240176171875000000e+04
-6.238461328125000000e+04
-6.237423437500000000e+04
-6.236299609375000000e+04
-6.235962109375000000e+04
-6.235942968750000000e+04
-6.235917968750000000e+04
-6.236228515625000000e+04
-6.235230078125000000e+04
-6.235978125000000000e+04
-6.235885546875000000e+04
-6.236007421875000000e+04
-6.236094921875000000e+04
-6.236172656250000000e+04
-6.236117968750000000e+04
-6.235828125000000000e+04
-6.235973046875000000e+04
-6.236017187500000000e+04
-6.239613671875000000e+04
-6.237714062500000000e+04
-6.237122265625000000e+04
-6.236381640625000000e+04
-6.234722265625000000e+04
-6.235537500000000000e+04
-6.235232812500000000e+04
-6.235003515625000000e+04
-6.234285156250000000e+04
-6.233983593750000000e+04
-6.234706250000000000e+04
-6.234564843750000000e+04
-6.234893750000000000e+04
-6.235028125000000000e+04
-6.234976953125000000e+04
-6.234528515625000000e+04
-6.234457421875000000e+04
-6.234119140625000000e+04
-6.234225781250000000e+04
-6.240400000000000000e+04
-6.238877734375000000e+04
-6.237056250000000000e+04
-6.236465625000000000e+04
-6.235553125000000000e+04
-6.234930468750000000e+04
-6.235597265625000000e+04
-6.235136328125000000e+04
-6.234380859375000000e+04
-6.234406250000000000e+04
-6.234302734375000000e+04
-6.234230859375000000e+04
-6.234215234375000000e+04
-6.233450390625000000e+04
-6.233439843750000000e+04
-6.233478125000000000e+04
-6.233150000000000000e+04
-6.233499218750000000e+04
-6.233878515625000000e+04
-6.233480859375000000e+04
-6.239811328125000000e+04
-6.238283984375000000e+04
-6.237796093750000000e+04
-6.237931250000000000e+04
-6.237773046875000000e+04
-6.237765234375000000e+04
-6.238077343750000000e+04
-6.237918359375000000e+04
-6.237455078125000000e+04
-6.237636718750000000e+04
-6.237273828125000000e+04
-6.237180078125000000e+04
-6.237471093750000000e+04
-6.237403515625000000e+04
-6.237192187500000000e+04
-6.237525781250000000e+04
-6.237306250000000000e+04
-6.237057031250000000e+04
-6.236732031250000000e+04
-6.237136718750000000e+04
-6.237064062500000000e+04
-6.237166796875000000e+04
-6.237421875000000000e+04
-6.236533984375000000e+04
-6.236773046875000000e+04
-6.244137500000000000e+04
-6.239925000000000000e+04
-6.239282421875000000e+04
-6.238780468750000000e+04
-6.237937109375000000e+04
-6.237848828125000000e+04
-6.237660546875000000e+04
-6.237394921875000000e+04
-6.237049609375000000e+04
-6.236888671875000000e+04
-6.237653515625000000e+04
-6.237710546875000000e+04
-6.237442578125000000e+04
-6.237289843750000000e+04
-6.237439843750000000e+04
-6.237007421875000000e+04
-6.237046093750000000e+04
-6.237330078125000000e+04
-6.237678125000000000e+04
-6.237174609375000000e+04
-6.237137109375000000e+04
-6.237943750000000000e+04
-6.244137500000000000e+04
-6.240507031250000000e+04
-6.239516796875000000e+04
-6.237714062500000000e+04
-6.237252734375000000e+04
-6.236583593750000000e+04
-6.236445703125000000e+04
-6.236032421875000000e+04
-6.235877734375000000e+04
-6.235889062500000000e+04
-6.236707031250000000e+04
-6.236415234375000000e+04
-6.235717187500000000e+04
-6.235817968750000000e+04
-6.235929296875000000e+04
-6.235850390625000000e+04
-6.236189843750000000e+04
-6.235836718750000000e+04
-6.235662890625000000e+04
-6.235637890625000000e+04
-6.235151953125000000e+04
-6.235127734375000000e+04
-6.235464062500000000e+04
-6.235511328125000000e+04
-6.235346875000000000e+04
-6.235423828125000000e+04
-6.240583203125000000e+04
-6.239171484375000000e+04
-6.236147656250000000e+04
-6.236616406250000000e+04
-6.236041015625000000e+04
-6.235985156250000000e+04
-6.236174609375000000e+04
-6.236102734375000000e+04
-6.236448437500000000e+04
-6.236530468750000000e+04
-6.235915234375000000e+04
-6.236113281250000000e+04
-6.236049609375000000e+04
-6.235294921875000000e+04
-6.235257031250000000e+04
-6.235576953125000000e+04
-6.235771093750000000e+04
-6.244137500000000000e+04
-6.240242187500000000e+04
-6.239725390625000000e+04
-6.235694531250000000e+04
-6.235246875000000000e+04
-6.234933984375000000e+04
-6.234878515625000000e+04
-6.234259375000000000e+04
-6.234837500000000000e+04
-6.234505859375000000e+04
-6.234487890625000000e+04
-6.233997656250000000e+04
-6.234210937500000000e+04
-6.233834375000000000e+04
-6.233707421875000000e+04
-6.233898828125000000e+04
-6.233230859375000000e+04
-6.232910156250000000e+04
-6.233117968750000000e+04
-6.240179687500000000e+04
-6.238504687500000000e+04
-6.235894531250000000e+04
-6.235267578125000000e+04
-6.235622656250000000e+04
-6.235214453125000000e+04
-6.234683203125000000e+04
-6.235041406250000000e+04
-6.235217578125000000e+04
-6.234992578125000000e+04
-6.234904296875000000e+04
-6.234952343750000000e+04
-6.234938281250000000e+04
-6.234721093750000000e+04
-6.234765625000000000e+04
-6.234127343750000000e+04
-6.233725781250000000e+04
-6.234006250000000000e+04
-6.234722265625000000e+04
-6.234373046875000000e+04
-6.234033203125000000e+04
-6.234361718750000000e+04
-6.234136718750000000e+04
-6.233672265625000000e+04
-6.233110156250000000e+04
-6.232845312500000000e+04
-6.244227734375000000e+04
-6.238828515625000000e+04
-6.237679687500000000e+04
-6.237850000000000000e+04
-6.237441796875000000e+04
-6.237369140625000000e+04
-6.237522265625000000e+04
-6.237314062500000000e+04
-6.237381640625000000e+04
-6.237306250000000000e+04
-6.237373828125000000e+04
-6.237146484375000000e+04
-6.237300000000000000e+04
-6.237401953125000000e+04
-6.237077734375000000e+04
-6.237441015625000000e+04
-6.237730859375000000e+04
-6.237304296875000000e+04
-6.237501562500000000e+04
-6.236669531250000000e+04
-6.237442578125000000e+04
-6.237412109375000000e+04
-6.237035937500000000e+04
-6.244227734375000000e+04
-6.240566015625000000e+04
-6.239714843750000000e+04
-6.239143359375000000e+04
-6.237373437500000000e+04
-6.237436328125000000e+04
-6.237806250000000000e+04
-6.237575390625000000e+04
-6.237302343750000000e+04
-6.236957812500000000e+04
-6.237535156250000000e+04
-6.237199609375000000e+04
-6.236927343750000000e+04
-6.237194921875000000e+04
-6.237608984375000000e+04
-6.237237109375000000e+04
-6.236930468750000000e+04
-6.237265625000000000e+04
-6.237848046875000000e+04
-6.236987500000000000e+04
-6.236889062500000000e+04
-6.237410156250000000e+04
-6.237789062500000000e+04
-6.237554296875000000e+04
-6.237473437500000000e+04
-6.237482031250000000e+04
-6.237691406250000000e+04
-6.238004687500000000e+04
-6.237396484375000000e+04
-6.237308984375000000e+04
-6.244227734375000000e+04
-6.240763671875000000e+04
-6.240089062500000000e+04
-6.237975000000000000e+04
-6.237565625000000000e+04
-6.236599609375000000e+04
-6.236230078125000000e+04
-6.236488281250000000e+04
-6.236099609375000000e+04
-6.236080078125000000e+04
-6.235911328125000000e+04
-6.235831250000000000e+04
-6.235659765625000000e+04
-6.236926562500000000e+04
-6.236450390625000000e+04
-6.235830078125000000e+04
-6.235943750000000000e+04
-6.236139453125000000e+04
-6.235750000000000000e+04
-6.235282031250000000e+04
-6.235450781250000000e+04
-6.235290625000000000e+04
-6.235894531250000000e+04
-6.235567578125000000e+04
-6.235265234375000000e+04
-6.235151562500000000e+04
-6.244227734375000000e+04
-6.240703125000000000e+04
-6.240018359375000000e+04
-6.238583984375000000e+04
-6.236569531250000000e+04
-6.236594531250000000e+04