1.230575323104858398e+00 1.470535278320312500e+01 -8.969227790832519531e+00 1.470535278320312500e+01 -7.591724395751953125e+01 -9.322283744812011719e+00 -8.969227790832519531e+00 -9.322283744812011719e+00 -6.067136764526367188e+01
-5.046387863159179688e+01 1.334604644775390625e+01 1.046791839599609375e+01 1.334604644775390625e+01 -4.817220306396484375e+01 6.562932729721069336e-01 1.046791839599609375e+01 6.562932729721069336e-01 -2.869122886657714844e+01
3.678187370300292969e+00 -2.320934057235717773e+00 1.184594535827636719e+01 -2.320934057235717773e+00 -1.289043140411376953e+01 3.543373346328735352e+00 1.184594535827636719e+01 3.543373346328735352e+00 -7.610369682312011719e+00
-1.226835823059082031e+01 1.424641132354736328e+01 -1.459527301788330078e+01 1.424641132354736328e+01 -1.832728958129882812e+01 1.370481587946414948e-02 -1.459527301788330078e+01 1.370481587946414948e-02 -5.004965591430664062e+01
-3.479753875732421875e+01 -1.124345302581787109e+01 -3.400666952133178711e+00 -1.124345302581787109e+01 -4.976770019531250000e+01 -1.609432339668273926e+00 -3.400666952133178711e+00 -1.609432339668273926e+00 -2.185884094238281250e+01
-2.354352569580078125e+01 -1.738847541809082031e+01 6.162080287933349609e+00 -1.738847541809082031e+01 -4.580884552001953125e+01 -1.816088104248046875e+01 6.162080287933349609e+00 -1.816088104248046875e+01 -2.511392974853515625e+01
-4.122613906860351562e+01 3.856611251831054688e-01 9.685527801513671875e+00 3.856611251831054688e-01 -4.956421279907226562e+01 2.183393239974975586e+00 9.685527801513671875e+00 2.183393239974975586e+00 -1.806139373779296875e+01
-3.080541229248046875e+01 -1.040683650970458984e+01 -2.982082843780517578e+00 -1.040683650970458984e+01 -2.179715538024902344e+01 -3.110420703887939453e-01 -2.982082843780517578e+00 -3.110420703887939453e-01 -3.936508560180664062e+01
-5.168370437622070312e+01 -9.176194190979003906e+00 -5.449558258056640625e+00 -9.176194190979003906e+00 -4.087578964233398438e+01 6.406913280487060547e+00 -5.449558258056640625e+00 6.406913280487060547e+00 -1.853710556030273438e+01
-8.381238937377929688e+00 5.425557136535644531e+00 2.039682197570800781e+01 5.425557136535644531e+00 -2.876632499694824219e+01 -4.977807044982910156e+00 2.039682197570800781e+01 -4.977807044982910156e+00 -2.630620765686035156e+01
-3.199769973754882812e+01 -3.548055887222290039e+00 -8.144977569580078125e+00 -3.548055887222290039e+00 -1.800394821166992188e+01 -5.810153961181640625e+00 -8.144977569580078125e+00 -5.810153961181640625e+00 -7.028435516357421875e+01
-2.511955642700195312e+01 -7.615073680877685547e+00 9.932819366455078125e+00 -7.615073680877685547e+00 -3.299470520019531250e+01 -5.800331115722656250e+00 9.932819366455078125e+00 -5.800331115722656250e+00 -9.290635108947753906e+00
-3.662614440917968750e+01 -1.145327758789062500e+01 -1.551606369018554688e+01 -1.145327758789062500e+01 -1.719559860229492188e+01 -4.728350639343261719e+00 -1.551606369018554688e+01 -4.728350639343261719e+00 -3.156694602966308594e+01
9.514018058776855469e+00 1.225883293151855469e+01 -5.429786682128906250e+00 1.225883293151855469e+01 1.578277873992919922e+01 -8.666634559631347656e-01 -5.429786682128906250e+00 -8.666634559631347656e-01 -3.126879882812500000e+01
-4.826866531372070312e+01 -1.112930870056152344e+01 -2.247994184494018555e+00 -1.112930870056152344e+01 -1.748984527587890625e+01 -1.537746620178222656e+01 -2.247994184494018555e+00 -1.537746620178222656e+01 -1.943929672241210938e+01
-2.697143745422363281e+01 1.174696445465087891e+01 2.857738018035888672e+00 1.174696445465087891e+01 -3.375705337524414062e+01 -1.474492931365966797e+01 2.857738018035888672e+00 -1.474492931365966797e+01 -6.875177001953125000e+01
-5.701335144042968750e+01 -3.717140436172485352e+00 1.262317657470703125e+01 -3.717140436172485352e+00 -1.303194332122802734e+01 -5.056403875350952148e-01 1.262317657470703125e+01 -5.056403875350952148e-01 -5.661036300659179688e+01
-2.694179344177246094e+01 -1.214903736114501953e+01 -1.232203006744384766e+00 -1.214903736114501953e+01 3.046372652053833008e+00 -1.420067310333251953e+00 -1.232203006744384766e+00 -1.420067310333251953e+00 -4.079571914672851562e+01
-5.111215591430664062e+01 -1.370153045654296875e+01 1.280902385711669922e+01 -1.370153045654296875e+01 -1.013239574432373047e+01 -1.557263660430908203e+01 1.280902385711669922e+01 -1.557263660430908203e+01 -4.414730072021484375e+01
-4.015229415893554688e+01 -2.187216377258300781e+01 4.744663238525390625e+00 -2.187216377258300781e+01 -1.020488500595092773e+00 -3.439161300659179688e+00 4.744663238525390625e+00 -3.439161300659179688e+00 -4.030467987060546875e+01
-2.141967582702636719e+01 4.917877197265625000e+00 -2.711657905578613281e+01 4.917877197265625000e+00 -2.755303382873535156e+01 1.250250816345214844e+01 -2.711657905578613281e+01 1.250250816345214844e+01 -3.553757858276367188e+01
-1.929825592041015625e+01 2.900675296783447266e+00 -8.318228721618652344e+00 2.900675296783447266e+00 1.124616909027099609e+01 -4.819998264312744141e+00 -8.318228721618652344e+00 -4.819998264312744141e+00 -1.316007041931152344e+01
-2.515645980834960938e+01 1.112959289550781250e+01 -6.191992759704589844e+00 1.112959289550781250e+01 -2.424595642089843750e+01 -9.831496238708496094e+00 -6.191992759704589844e+00 -9.831496238708496094e+00 -5.274532318115234375e+01
-7.451750946044921875e+01 -1.706172752380371094e+01 -1.460191726684570312e+01 -1.706172752380371094e+01 -4.015246582031250000e+01 3.850674152374267578e+00 -1.460191726684570312e+01 3.850674152374267578e+00 -4.096185302734375000e+01
-3.447206878662109375e+01 -1.296836090087890625e+01 -1.010324096679687500e+01 -1.296836090087890625e+01 -3.369076919555664062e+01 -2.531778097152709961e+00 -1.010324096679687500e+01 -2.531778097152709961e+00 -3.004091072082519531e+01
-3.326553726196289062e+01 9.080236434936523438e+00 -2.819163084030151367e+00 9.080236434936523438e+00 -3.108617591857910156e+01 1.282183456420898438e+01 -2.819163084030151367e+00 1.282183456420898438e+01 -1.372373104095458984e+01
-4.117167282104492188e+01 4.720351696014404297e+00 6.423014640808105469e+00 4.720351696014404297e+00 -5.550842285156250000e+01 -8.207196235656738281e+00 6.423014640808105469e+00 -8.207196235656738281e+00 -4.088987350463867188e+01
-2.915588951110839844e+01 2.813425540924072266e+00 7.162853717803955078e+00 2.813425540924072266e+00 -1.456675887107849121e+00 8.929908752441406250e+00 7.162853717803955078e+00 8.929908752441406250e+00 -3.495444488525390625e+01
-1.474682521820068359e+01 -1.825173616409301758e+00 1.306157493591308594e+01 -1.825173616409301758e+00 -1.308941173553466797e+01 5.818830490112304688e+00 1.306157493591308594e+01 5.818830490112304688e+00 -5.864154434204101562e+01
1.230575323104858398e+00 1.470535278320312500e+01 -8.969227790832519531e+00 1.470535278320312500e+01 -7.591724395751953125e+01 -9.322283744812011719e+00 -8.969227790832519531e+00 -9.322283744812011719e+00 -6.067136764526367188e+01
-3.046771812438964844e+01 4.511318683624267578e+00 -7.566388607025146484e+00 4.511318683624267578e+00 -3.402195739746093750e+01 -1.194455242156982422e+01 -7.566388607025146484e+00 -1.194455242156982422e+01 -2.230966186523437500e+01
4.562791824340820312e+00 -6.474180221557617188e+00 -6.410506725311279297e+00 -6.474180221557617188e+00 2.185767650604248047e+00 -1.025944995880126953e+01 -6.410506725311279297e+00 -1.025944995880126953e+01 3.298289179801940918e-01
-8.410547256469726562e+00 2.764282608032226562e+01 7.551738739013671875e+00 2.764282608032226562e+01 -2.041018104553222656e+01 6.587357997894287109e+00 7.551738739013671875e+00 6.587357997894287109e+00 2.424047470092773438e+01
-2.174509286880493164e+00 -7.034270286560058594e+00 -5.682732105255126953e+00 -7.034270286560058594e+00 -2.379104232788085938e+01 -9.257663726806640625e+00 -5.682732105255126953e+00 -9.257663726806640625e+00 -4.695544815063476562e+01
-2.821210289001464844e+01 8.974416851997375488e-01 -7.508128285408020020e-01 8.974416851997375488e-01 -5.047413635253906250e+01 -2.683168411254882812e+00 -7.508128285408020020e-01 -2.683168411254882812e+00 -3.047559356689453125e+01
-3.081409263610839844e+01 1.642681884765625000e+01 -6.590574741363525391e+00 1.642681884765625000e+01 -2.559421348571777344e+01 6.550903320312500000e+00 -6.590574741363525391e+00 6.550903320312500000e+00 -3.300190734863281250e+01
-1.896600723266601562e+01 6.107639789581298828e+00 3.024579524993896484e+00 6.107639789581298828e+00 4.293750762939453125e+00 1.036903476715087891e+01 3.024579524993896484e+00 1.036903476715087891e+01 -3.884576034545898438e+01
2.030790328979492188e+01 -1.419121325016021729e-01 1.801510047912597656e+01 -1.419121325016021729e-01 -1.061020469665527344e+01 5.462112426757812500e+00 1.801510047912597656e+01 5.462112426757812500e+00 -3.627599334716796875e+01
-3.295584106445312500e+01 2.716314077377319336e+00 1.852694320678710938e+01 2.716314077377319336e+00 -1.924020767211914062e+01 -1.007107734680175781e+00 1.852694320678710938e+01 -1.007107734680175781e+00 -4.391648101806640625e+01
-4.281351089477539062e+01 -2.285528755187988281e+01 -1.056615161895751953e+01 -2.285528755187988281e+01 -5.048680496215820312e+01 -9.831086158752441406e+00 -1.056615161895751953e+01 -9.831086158752441406e+00 -7.627012634277343750e+01
-2.070296859741210938e+01 -1.894104003906250000e+01 -6.477524280548095703e+00 -1.894104003906250000e+01 1.091768074035644531e+01 1.111832523345947266e+01 -6.477524280548095703e+00 1.111832523345947266e+01 -3.012958335876464844e+01
-4.817100906372070312e+01 -4.126126766204833984e+00 8.753300666809082031e+00 -4.126126766204833984e+00 -4.839884948730468750e+01 -6.077578544616699219e+00 8.753300666809082031e+00 -6.077578544616699219e+00 -2.935274696350097656e+01
-3.513682937622070312e+01 -6.036629676818847656e+00 2.327034950256347656e+00 -6.036629676818847656e+00 7.621619224548339844e+00 8.205701708793640137e-01 2.327034950256347656e+00 8.205701708793640137e-01 -1.492004680633544922e+01
-1.221377849578857422e+01 -1.079236698150634766e+01 -3.608051300048828125e+00 -1.079236698150634766e+01 -1.196702480316162109e+01 1.063374137878417969e+01 -3.608051300048828125e+00 1.063374137878417969e+01 -1.427750015258789062e+01
-5.257887268066406250e+01 -1.402934455871582031e+01 -3.398225402832031250e+01 -1.402934455871582031e+01 -4.122381591796875000e+01 1.232141399383544922e+01 -3.398225402832031250e+01 1.232141399383544922e+01 -1.594332575798034668e+00
-1.097530937194824219e+01 -4.940105438232421875e+00 -2.218603897094726562e+01 -4.940105438232421875e+00 -2.414299011230468750e+01 1.315739536285400391e+01 -2.218603897094726562e+01 1.315739536285400391e+01 -1.320219135284423828e+01
-3.545499038696289062e+01 -1.816262054443359375e+01 7.817279815673828125e+00 -1.816262054443359375e+01 -2.707471275329589844e+01 2.878279447555541992e+00 7.817279815673828125e+00 2.878279447555541992e+00 -3.491881179809570312e+01
-1.164618396759033203e+01 3.417584180831909180e+00 7.809027433395385742e-01 3.417584180831909180e+00 -1.268459677696228027e+00 2.660713577270507812e+01 7.809027433395385742e-01 2.660713577270507812e+01 -1.990245056152343750e+01
-4.375146484375000000e+01 -1.053364562988281250e+01 8.356430053710937500e+00 -1.053364562988281250e+01 -2.771641731262207031e+01 -5.234748840332031250e+00 8.356430053710937500e+00 -5.234748840332031250e+00 -1.899929618835449219e+01
-2.042545700073242188e+01 -4.418677091598510742e-01 -2.915970325469970703e+00 -4.418677091598510742e-01 -2.107538986206054688e+01 3.369755029678344727e+00 -2.915970325469970703e+00 3.369755029678344727e+00 1.075866603851318359e+01
-4.903661346435546875e+01 5.228338241577148438e+00 1.417745971679687500e+01 5.228338241577148438e+00 -4.674912261962890625e+01 1.188119053840637207e+00 1.417745971679687500e+01 1.188119053840637207e+00 -5.469555664062500000e+01
8.330456733703613281e+00 -7.373733520507812500e-01 2.290220069885253906e+01 -7.373733520507812500e-01 -2.539925575256347656e+01 2.014133453369140625e+01 2.290220069885253906e+01 2.014133453369140625e+01 3.187743663787841797e+00
1.732730716466903687e-01 -2.575342416763305664e+00 -2.038655662536621094e+01 -2.575342416763305664e+00 -5.040460968017578125e+01 2.382670402526855469e+00 -2.038655662536621094e+01 2.382670402526855469e+00 -3.052183723449707031e+01
-2.641599273681640625e+01 5.767572402954101562e+00 -2.484477996826171875e+00 5.767572402954101562e+00 -3.293576049804687500e+01 -5.103322863578796387e-01 -2.484477996826171875e+00 -5.103322863578796387e-01 -3.488356399536132812e+01
-2.230340576171875000e+01 -1.980207061767578125e+01 -3.986007690429687500e+00 -1.980207061767578125e+01 -1.177191543579101562e+01 7.630089282989501953e+00 -3.986007690429687500e+00 7.630089282989501953e+00 -9.893862724304199219e+00
-4.214375686645507812e+01 1.778910827636718750e+01 -1.337071514129638672e+01 1.778910827636718750e+01 -4.868180847167968750e+01 7.074765682220458984e+00 -1.337071514129638672e+01 7.074765682220458984e+00 -5.884465408325195312e+01
-9.047474861145019531e+00 1.315823173522949219e+01 -7.586369037628173828e+00 1.315823173522949219e+01 5.884622097015380859e+00 7.490691661834716797e+00 -7.586369037628173828e+00 7.490691661834716797e+00 -3.535174369812011719e+00
9.727203369140625000e+00 7.242301464080810547e+00 -1.136131381988525391e+01 7.242301464080810547e+00 -1.354982376098632812e+01 -7.418197154998779297e+00 -1.136131381988525391e+01 -7.418197154998779297e+00 1.828883934020996094e+01
-2.528352546691894531e+01 2.168129730224609375e+01 -5.695352077484130859e+00 2.168129730224609375e+01 -6.404409027099609375e+01 -1.306557464599609375e+01 -5.695352077484130859e+00 -1.306557464599609375e+01 -1.984505844116210938e+01
-4.887466430664062500e+01 6.743400096893310547e+00 2.040256738662719727e+00 6.743400096893310547e+00 -6.375592422485351562e+01 -2.926742315292358398e+00 2.040256738662719727e+00 -2.926742315292358398e+00 -1.656646347045898438e+01
-2.103578948974609375e+01 -1.296104335784912109e+01 -1.373487353324890137e+00 -1.296104335784912109e+01 7.710094451904296875e-01 -1.141780090332031250e+01 -1.373487353324890137e+00 -1.141780090332031250e+01 -3.768999862670898438e+01
8.442722320556640625e+00 2.168988037109375000e+01 -1.837747395038604736e-01 2.168988037109375000e+01 -5.610424518585205078e+00 4.961224079132080078e+00 -1.837747395038604736e-01 4.961224079132080078e+00 -2.738838386535644531e+01
-6.768383789062500000e+01 -1.127826690673828125e+00 1.694855880737304688e+01 -1.127826690673828125e+00 -4.030036544799804688e+01 -1.839674949645996094e+01 1.694855880737304688e+01 -1.839674949645996094e+01 -7.629639625549316406e+00
-1.659687614440917969e+01 9.886228561401367188e+00 -3.643101453781127930e+00 9.886228561401367188e+00 -8.320507049560546875e+00 1.332368183135986328e+01 -3.643101453781127930e+00 1.332368183135986328e+01 -1.290134525299072266e+01
7.636834621429443359e+00 1.084597110748291016e+01 -2.255186080932617188e+00 1.084597110748291016e+01 -4.305122756958007812e+01 -3.123927354812622070e+00 -2.255186080932617188e+00 -3.123927354812622070e+00 -2.130264854431152344e+01
-7.903462886810302734e+00 5.930243492126464844e+00 1.247962284088134766e+01 5.930243492126464844e+00 -7.675051116943359375e+01 9.654994964599609375e+00 1.247962284088134766e+01 9.654994964599609375e+00 -5.313278961181640625e+01
-5.976817703247070312e+01 -9.235093116760253906e+00 -1.414116382598876953e+01 -9.235093116760253906e+00 -5.203184127807617188e+01 -5.642017364501953125e+00 -1.414116382598876953e+01 -5.642017364501953125e+00 -6.081321716308593750e+01
-6.554981994628906250e+01 8.291430473327636719e+00 -6.105939149856567383e-01 8.291430473327636719e+00 -1.857196998596191406e+01 -7.864574909210205078e+00 -6.105939149856567383e-01 -7.864574909210205078e+00 -7.181468963623046875e+01
-4.124190521240234375e+01 5.379610538482666016e+00 -1.452255153656005859e+01 5.379610538482666016e+00 -6.129604339599609375e+01 -1.183088541030883789e+00 -1.452255153656005859e+01 -1.183088541030883789e+00 -5.782905578613281250e+01
-3.040948486328125000e+01 2.001715087890625000e+01 -7.177191257476806641e+00 2.001715087890625000e+01 -2.635339164733886719e+01 -8.668637275695800781e+00 -7.177191257476806641e+00 -8.668637275695800781e+00 -3.809630966186523438e+01
-8.098273468017578125e+01 9.190074920654296875e+00 4.804892241954803467e-01 9.190074920654296875e+00 -4.707571029663085938e+01 1.769022178649902344e+01 4.804892241954803467e-01 1.769022178649902344e+01 -2.774350357055664062e+01
-2.139188575744628906e+01 4.903996467590332031e+00 -8.306503295898437500e+00 4.903996467590332031e+00 -1.325140953063964844e+01 -1.905272483825683594e+01 -8.306503295898437500e+00 -1.905272483825683594e+01 -3.382919692993164062e+01
2.029572010040283203e+00 -1.617031669616699219e+01 -1.357689380645751953e+01 -1.617031669616699219e+01 -9.227436780929565430e-01 -1.865080070495605469e+01 -1.357689380645751953e+01 -1.865080070495605469e+01 -1.561505794525146484e+01
-2.618532752990722656e+01 1.482503604888916016e+01 -1.776354670524597168e+00 1.482503604888916016e+01 -4.312033462524414062e+01 5.783974647521972656e+00 -1.776354670524597168e+00 5.783974647521972656e+00 -5.770877838134765625e+01
-1.627744483947753906e+01 1.160949325561523438e+01 -2.882641315460205078e+00 1.160949325561523438e+01 -1.137693309783935547e+01 1.033657073974609375e+01 -2.882641315460205078e+00 1.033657073974609375e+01 -7.368243694305419922e+00
-4.843703079223632812e+01 9.334817886352539062e+00 -2.133559799194335938e+01 9.334817886352539062e+00 -4.678405761718750000e+01 -1.481314301490783691e+00 -2.133559799194335938e+01 -1.481314301490783691e+00 -1.275119113922119141e+01
-4.640477180480957031e+00 6.665838718414306641e+00 9.524781227111816406e+00 6.665838718414306641e+00 -5.305871963500976562e+01 -6.715509891510009766e+00 9.524781227111816406e+00 -6.715509891510009766e+00 -3.090443611145019531e+01
-3.753804779052734375e+01 -3.445216655731201172e+00 -1.201436328887939453e+01 -3.445216655731201172e+00 -1.475236225128173828e+01 -7.541793823242187500e+00 -1.201436328887939453e+01 -7.541793823242187500e+00 -5.089770126342773438e+01
-4.610364151000976562e+01 5.077199339866638184e-01 -5.997787952423095703e+00 5.077199339866638184e-01 -3.547735214233398438e+01 2.120994091033935547e+00 -5.997787952423095703e+00 2.120994091033935547e+00 -9.907615661621093750e+00
-4.011750793457031250e+01 5.854850769042968750e+00 3.168341636657714844e+01 5.854850769042968750e+00 -3.353353881835937500e+01 6.144378185272216797e+00 3.168341636657714844e+01 6.144378185272216797e+00 -3.987070846557617188e+01
1.230575323104858398e+00 1.470535278320312500e+01 -8.969227790832519531e+00 1.470535278320312500e+01 -7.591724395751953125e+01 -9.322283744812011719e+00 -8.969227790832519531e+00 -9.322283744812011719e+00 -6.067136764526367188e+01
-6.992904663085937500e+00 1.105743980407714844e+01 2.007850408554077148e+00 1.105743980407714844e+01 -3.566182327270507812e+01 1.623228073120117188e+01 2.007850408554077148e+00 1.623228073120117188e+01 -4.257314682006835938e+00
-2.235573196411132812e+01 7.757915973663330078e+00 -1.068921375274658203e+01 7.757915973663330078e+00 -3.177757644653320312e+01 -3.192400550842285156e+01 -1.068921375274658203e+01 -3.192400550842285156e+01 -3.249721908569335938e+01
4.412651538848876953e+00 3.884950399398803711e+00 -1.581106185913085938e+01 3.884950399398803711e+00 -3.416833496093750000e+01 8.352949619293212891e-01 -1.581106185913085938e+01 8.352949619293212891e-01 -1.207987022399902344e+01
-3.497705078125000000e+01 -1.251118278503417969e+01 2.275242805480957031e+00 -1.251118278503417969e+01 -4.974243545532226562e+01 1.863539123535156250e+01 2.275242805480957031e+00 1.863539123535156250e+01 -3.455168151855468750e+01
1.682887077331542969e+01 -4.498894214630126953e+00 2.391839742660522461e+00 -4.498894214630126953e+00 -2.798197746276855469e+01 -4.394434452056884766e+00 2.391839742660522461e+00 -4.394434452056884766e+00 -1.451086330413818359e+01
-6.663642883300781250e+01 1.349592781066894531e+01 -7.983822345733642578e+00 1.349592781066894531e+01 -4.153055953979492188e+01 1.960337042808532715e+00 -7.983822345733642578e+00 1.960337042808532715e+00 -4.222390747070312500e+01
-2.651058769226074219e+01 3.017747402191162109e+00 6.513861179351806641e+00 3.017747402191162109e+00 -5.193544387817382812e+00 1.322799015045166016e+01 6.513861179351806641e+00 1.322799015045166016e+01 -1.964248657226562500e+01
-3.632202529907226562e+01 6.206079006195068359e+00 -8.340213775634765625e+00 6.206079006195068359e+00 -1.417796850204467773e+00 -1.736524462699890137e+00 -8.340213775634765625e+00 -1.736524462699890137e+00 -4.766817092895507812e+00
-4.463124847412109375e+01 -2.890637397766113281e+00 -1.734977722167968750e+00 -2.890637397766113281e+00 -1.983748817443847656e+01 1.220137977600097656e+01 -1.734977722167968750e+00 1.220137977600097656e+01 -1.087078380584716797e+01
-4.963312911987304688e+01 -1.650264930725097656e+01 6.402608871459960938e+00 -1.650264930725097656e+01 -4.327164077758789062e+01 1.022931003570556641e+01 6.402608871459960938e+00 1.022931003570556641e+01 -3.666607666015625000e+01
1.644468879699707031e+01 -1.150079965591430664e+00 1.351483058929443359e+01 -1.150079965591430664e+00 -1.717919540405273438e+01 8.331908226013183594e+00 1.351483058929443359e+01 8.331908226013183594e+00 -6.524634361267089844e+00
-2.543746566772460938e+01 -3.929926156997680664e-01 -1.690252685546875000e+01 -3.929926156997680664e-01 -4.481485366821289062e+01 -2.331448554992675781e+00 -1.690252685546875000e+01 -2.331448554992675781e+00 -4.337670898437500000e+01
5.365175247192382812e+00 -4.018058300018310547e+00 -1.823195457458496094e+01 -4.018058300018310547e+00 -2.733704376220703125e+01 -8.997861862182617188e+00 -1.823195457458496094e+01 -8.997861862182617188e+00 9.294472336769104004e-01
-3.928571701049804688e+01 2.244435548782348633e+00 -2.107185745239257812e+01 2.244435548782348633e+00 -3.114739036560058594e+01 8.940025329589843750e+00 -2.107185745239257812e+01 8.940025329589843750e+00 -1.249115753173828125e+01
-5.385458755493164062e+01 -1.111160659790039062e+01 -6.019994258880615234e+00 -1.111160659790039062e+01 -7.215641021728515625e+01 1.051897335052490234e+01 -6.019994258880615234e+00 1.051897335052490234e+01 -1.896570968627929688e+01
1.230575323104858398e+00 1.470535278320312500e+01 -8.969227790832519531e+00 1.470535278320312500e+01 -7.591724395751953125e+01 -9.322283744812011719e+00 -8.969227790832519531e+00 -9.322283744812011719e+00 -6.067136764526367188e+01
-2.482881784439086914e+00 8.998462677001953125e+00 2.748599767684936523e+00 8.998462677001953125e+00 -6.874406337738037109e+00 -4.220950603485107422e+00 2.748599767684936523e+00 -4.220950603485107422e+00 -1.644627761840820312e+01
-3.858768081665039062e+01 1.409530639648437500e+01 -6.874646663665771484e+00 1.409530639648437500e+01 -7.530255126953125000e+01 -6.431734085083007812e+00 -6.874646663665771484e+00 -6.431734085083007812e+00 -3.874471664428710938e+01
1.834905147552490234e+00 2.241015434265136719e+01 -7.474291324615478516e+00 2.241015434265136719e+01 -2.164807891845703125e+01 -1.335123348236083984e+01 -7.474291324615478516e+00 -1.335123348236083984e+01 -1.827906990051269531e+01
-2.763963890075683594e+01 2.141205024719238281e+01 -1.939256095886230469e+01 2.141205024719238281e+01 -5.439007568359375000e+01 4.644315242767333984e+00 -1.939256095886230469e+01 4.644315242767333984e+00 -5.554621124267578125e+01
-2.689017295837402344e+01 1.216151046752929688e+01 -2.082052707672119141e+00 1.216151046752929688e+01 -3.841497421264648438e+01 -2.441134691238403320e+00 -2.082052707672119141e+00 -2.441134691238403320e+00 -4.699650955200195312e+01
-1.098407649993896484e+01 -8.896476626396179199e-01 -5.744411945343017578e-01 -8.896476626396179199e-01 -4.837486267089843750e+01 -1.496115112304687500e+01 -5.744411945343017578e-01 -1.496115112304687500e+01 -2.315061378479003906e+01
-3.831192779541015625e+01 5.917965888977050781e+00 -7.935153484344482422e+00 5.917965888977050781e+00 -3.748076629638671875e+01 -1.041114902496337891e+01 -7.935153484344482422e+00 -1.041114902496337891e+01 -7.664826202392578125e+01
1.957301902770996094e+01 -1.255838489532470703e+01 1.432849311828613281e+01 -1.255838489532470703e+01 -3.909045410156250000e+01 1.829098510742187500e+01 1.432849311828613281e+01 1.829098510742187500e+01 -2.873477745056152344e+01
-5.462711334228515625e+01 2.145203399658203125e+01 6.340660095214843750e+00 2.145203399658203125e+01 -7.044921875000000000e+01 5.214782953262329102e-01 6.340660095214843750e+00 5.214782953262329102e-01 -6.887893676757812500e+01
-4.168900299072265625e+01 -1.330395126342773438e+01 2.436615371704101562e+01 -1.330395126342773438e+01 -7.528692722320556641e+00 1.179412460327148438e+01 2.436615371704101562e+01 1.179412460327148438e+01 -1.931730842590332031e+01
-2.558783531188964844e+00 -1.324872875213623047e+01 -9.824835777282714844e+00 -1.324872875213623047e+01 -1.028864860534667969e+01 -1.537517547607421875e+01 -9.824835777282714844e+00 -1.537517547607421875e+01 -4.711717987060546875e+01
-3.888239288330078125e+01 7.344300270080566406e+00 4.300263881683349609e+00 7.344300270080566406e+00 -6.458738708496093750e+01 -3.745888948440551758e+00 4.300263881683349609e+00 -3.745888948440551758e+00 -3.562796401977539062e+01
-2.181545448303222656e+01 -1.110155487060546875e+01 -1.003673839569091797e+01 -1.110155487060546875e+01 -6.429505920410156250e+01 5.726188659667968750e+00 -1.003673839569091797e+01 5.726188659667968750e+00 -7.797006988525390625e+01
-5.616728591918945312e+01 1.722460556030273438e+01 2.034866714477539062e+01 1.722460556030273438e+01 3.891081809997558594e+00 -9.940029382705688477e-01 2.034866714477539062e+01 -9.940029382705688477e-01 -4.326528549194335938e+01
-4.939348602294921875e+01 -7.849928855895996094e+00 1.994732093811035156e+01 -7.849928855895996094e+00 -6.409699249267578125e+01 1.586488533020019531e+01 1.994732093811035156e+01 1.586488533020019531e+01 -4.123453140258789062e+00
-2.938411331176757812e+01 1.677541732788085938e+01 3.041846513748168945e+00 1.677541732788085938e+01 -3.031140899658203125e+01 -1.476777935028076172e+01 3.041846513748168945e+00 -1.476777935028076172e+01 -1.800352859497070312e+01
-4.719539260864257812e+01 -1.412360191345214844e+01 1.532192039489746094e+01 -1.412360191345214844e+01 -4.869448852539062500e+01 -7.434139251708984375e+00 1.532192039489746094e+01 -7.434139251708984375e+00 -3.108109664916992188e+01
-4.217157363891601562e+01 5.296561717987060547e+00 1.677953720092773438e+01 5.296561717987060547e+00 -5.998316192626953125e+01 1.121028232574462891e+01 1.677953720092773438e+01 1.121028232574462891e+01 -4.554592514038085938e+01
-2.570276641845703125e+01 7.290818214416503906e+00 8.728343009948730469e+00 7.290818214416503906e+00 -1.425780963897705078e+01 -1.185898876190185547e+01 8.728343009948730469e+00 -1.185898876190185547e+01 -5.416627883911132812e+01
-8.122128295898437500e+01 -4.880750179290771484e+00 4.683839797973632812e+00 -4.880750179290771484e+00 -7.639347076416015625e+01 6.435928344726562500e+00 4.683839797973632812e+00 6.435928344726562500e+00 -5.220547866821289062e+01
-3.978256607055664062e+01 9.842078208923339844e+00 -1.087869739532470703e+01 9.842078208923339844e+00 -3.013400840759277344e+01 -2.949764251708984375e+00 -1.087869739532470703e+01 -2.949764251708984375e+00 -2.561940383911132812e+01
-5.168074798583984375e+01 -1.149519824981689453e+01 1.127898311614990234e+01 -1.149519824981689453e+01 -5.602745437622070312e+01 8.875041961669921875e+00 1.127898311614990234e+01 8.875041961669921875e+00 -3.389757156372070312e+01
1.230575323104858398e+00 1.470535278320312500e+01 -8.969227790832519531e+00 1.470535278320312500e+01 -7.591724395751953125e+01 -9.322283744812011719e+00 -8.969227790832519531e+00 -9.322283744812011719e+00 -6.067136764526367188e+01
3.311495208740234375e+01 4.959755420684814453e+00 -1.755108642578125000e+01 4.959755420684814453e+00 5.098582744598388672e+00 -1.563631343841552734e+01 -1.755108642578125000e+01 -1.563631343841552734e+01 3.406868743896484375e+01
-5.650304412841796875e+01 7.668178081512451172e+00 -2.112984466552734375e+01 7.668178081512451172e+00 -5.036592483520507812e+01 -1.266800975799560547e+01 -2.112984466552734375e+01 -1.266800975799560547e+01 -1.472064781188964844e+01
-1.800622177124023438e+01 1.916762733459472656e+01 1.022266674041748047e+01 1.916762733459472656e+01 -7.616328430175781250e+01 -2.139808464050292969e+01 1.022266674041748047e+01 -2.139808464050292969e+01 -5.558740997314453125e+01
-3.490356826782226562e+01 2.359147644042968750e+01 5.302776336669921875e+00 2.359147644042968750e+01 -5.617321395874023438e+01 2.391420173645019531e+01 5.302776336669921875e+00 2.391420173645019531e+01 -6.879215240478515625e+01
-1.655070304870605469e+01 -1.183657741546630859e+01 3.569138050079345703e+00 -1.183657741546630859e+01 -9.456607818603515625e+00 -1.803218960762023926e+00 3.569138050079345703e+00 -1.803218960762023926e+00 -1.378323674201965332e+00
-2.301398277282714844e+01 -6.875764369964599609e+00 1.737623214721679688e+01 -6.875764369964599609e+00 -2.099375152587890625e+01 -1.199185943603515625e+01 1.737623214721679688e+01 -1.199185943603515625e+01 -2.049094676971435547e+00
-1.971903610229492188e+01 2.653619003295898438e+01 -9.638051986694335938e+00 2.653619003295898438e+01 -2.689652442932128906e+01 -2.152438354492187500e+01 -9.638051986694335938e+00 -2.152438354492187500e+01 -3.566068649291992188e+01
-5.562765121459960938e+01 6.004663467407226562e+00 -1.178107166290283203e+01 6.004663467407226562e+00 -7.070031738281250000e+01 1.000600624084472656e+01 -1.178107166290283203e+01 1.000600624084472656e+01 -4.568274307250976562e+01
-1.427563858032226562e+01 1.352566814422607422e+01 -1.469714736938476562e+01 1.352566814422607422e+01 -5.549635314941406250e+01 4.175601005554199219e+00 -1.469714736938476562e+01 4.175601005554199219e+00 -4.513124465942382812e+01