-6.085485546875000000e+04
-6.084378515625000000e+04
-6.083879687500000000e+04
-6.082115625000000000e+04
-6.082711328125000000e+04
-6.083943750000000000e+04
-6.082066406250000000e+04
-6.083579296875000000e+04
-6.082643750000000000e+04
-6.084879296875000000e+04
-6.085453515625000000e+04
-6.083810937500000000e+04
-6.084212890625000000e+04
-6.082894531250000000e+04
-6.084071875000000000e+04
-6.082974218750000000e+04
-6.082962500000000000e+04
-6.082758593750000000e+04
-6.082032421875000000e+04
-6.085532421875000000e+04
-6.082526953125000000e+04
-6.082625781250000000e+04
-6.082994140625000000e+04
-6.081788281250000000e+04
-6.084037109375000000e+04
-6.084019140625000000e+04
-6.084192578125000000e+04
-6.085030078125000000e+04
-6.081857031250000000e+04
-6.082116015625000000e+04
-6.083986328125000000e+04
-6.082396093750000000e+04
-6.085122265625000000e+04
-6.084117968750000000e+04
-6.084108203125000000e+04
-6.084998046875000000e+04
-6.084291406250000000e+04
-6.084112109375000000e+04
-6.084103906250000000e+04
-6.082127734375000000e+04
-6.082154296875000000e+04
-6.083893750000000000e+04
-6.082081640625000000e+04
-6.085337500000000000e+04
-6.082679687500000000e+04
-6.082125390625000000e+04
-6.085446484375000000e+04
-6.083039062500000000e+04
-6.083532421875000000e+04
-6.082364062500000000e+04
-6.086473046875000000e+04
-6.082610546875000000e+04
-6.085475000000000000e+04
-6.082725000000000000e+04
-6.084514843750000000e+04
-6.082830468750000000e+04
-6.085215625000000000e+04
-6.084564843750000000e+04
-6.084435156250000000e+04
-6.082342578125000000e+04
-6.082705859375000000e+04
-6.084094921875000000e+04
-6.082124609375000000e+04
-6.082473046875000000e+04
-6.082521093750000000e+04
-6.082724609375000000e+04
-6.082176562500000000e+04
-6.085392968750000000e+04
-6.082438281250000000e+04
-6.082628906250000000e+04
-6.082821875000000000e+04
-6.083688281250000000e+04
-6.085556250000000000e+04
-6.083880859375000000e+04
-6.082239843750000000e+04
-6.084435156250000000e+04
-6.082926953125000000e+04
-6.085702343750000000e+04
-6.085348046875000000e+04
-6.085049218750000000e+04
-6.082957812500000000e+04
-6.083904296875000000e+04
-6.082869140625000000e+04
-6.082185546875000000e+04
-6.086723828125000000e+04
-6.085530078125000000e+04
-6.085286718750000000e+04
-6.085343359375000000e+04
-6.086885156250000000e+04
-6.085348828125000000e+04
-6.083953515625000000e+04
-6.083680859375000000e+04
-6.084333593750000000e+04
-6.081851171875000000e+04
-6.082306640625000000e+04
-6.082199218750000000e+04
-6.083254296875000000e+04
-6.083153515625000000e+04
-6.084239843750000000e+04
-6.082807421875000000e+04
-6.082151171875000000e+04
-6.082492187500000000e+04
-6.084826562500000000e+04
-6.082455859375000000e+04
-6.083405078125000000e+04
-6.082142578125000000e+04
-6.085457812500000000e+04
-6.082114062500000000e+04
-6.084178125000000000e+04
-6.082570703125000000e+04
-6.084006250000000000e+04
-6.082841406250000000e+04
-6.085353125000000000e+04
-6.083959765625000000e+04
-6.082665234375000000e+04
-6.083185156250000000e+04
-6.082253515625000000e+04
-6.082284765625000000e+04
-6.082080859375000000e+04
-6.082217968750000000e+04
-6.085153125000000000e+04
-6.083778515625000000e+04
-6.085306640625000000e+04
-6.083227734375000000e+04
-6.082887109375000000e+04
-6.082796875000000000e+04
-6.082269531250000000e+04
-6.082677343750000000e+04
-6.085438281250000000e+04
-6.082427734375000000e+04
-6.082321875000000000e+04
-6.085710546875000000e+04
-6.082059765625000000e+04
-6.082106250000000000e+04
-6.082814062500000000e+04
-6.085393750000000000e+04
-6.085554687500000000e+04
-6.082491796875000000e+04
-6.084425000000000000e+04
-6.082137500000000000e+04
-6.084193750000000000e+04
-6.082421875000000000e+04
-6.084642578125000000e+04
-6.082389453125000000e+04
-6.083661718750000000e+04
-6.084025000000000000e+04
-6.083451562500000000e+04
-6.085366796875000000e+04
-6.082558203125000000e+04
-6.083196093750000000e+04
-6.084388671875000000e+04
-6.085196875000000000e+04
-6.083940625000000000e+04
-6.085523437500000000e+04
-6.082298828125000000e+04
-6.084429687500000000e+04
-6.081916406250000000e+04
-6.083168359375000000e+04
-6.082973828125000000e+04
-6.083158203125000000e+04
-6.082679687500000000e+04
-6.084389843750000000e+04
-6.082336328125000000e+04
-6.085708203125000000e+04
-6.085463671875000000e+04
-6.085539843750000000e+04
-6.085933203125000000e+04
-6.081834765625000000e+04
-6.083209375000000000e+04
-6.085285546875000000e+04
-6.081744140625000000e+04
-6.083000000000000000e+04
-6.085233593750000000e+04
-6.082530468750000000e+04
-6.083946875000000000e+04
-6.085387500000000000e+04
-6.082642578125000000e+04
-6.082186718750000000e+04
-6.083975000000000000e+04
-6.082833203125000000e+04
-6.082739843750000000e+04
-6.083443750000000000e+04
-6.084134375000000000e+04
-6.082233203125000000e+04
-6.083104687500000000e+04
-6.082107812500000000e+04
-6.084305078125000000e+04
-6.083555859375000000e+04
-6.082834375000000000e+04
-6.084489453125000000e+04
-6.082794531250000000e+04
-6.084291796875000000e+04
-6.085012500000000000e+04
-6.083092578125000000e+04
-6.082489062500000000e+04
-6.081683593750000000e+04
-6.084333203125000000e+04
-6.084059765625000000e+04
-6.085391796875000000e+04
-6.083713671875000000e+04
-6.082523046875000000e+04
-6.082131250000000000e+04
-6.082078515625000000e+04
-6.083546093750000000e+04
-6.083936328125000000e+04
-6.084912109375000000e+04
-6.083570312500000000e+04
-6.084308984375000000e+04
-6.082974609375000000e+04
-6.082291015625000000e+04
-6.082206640625000000e+04
-6.084169921875000000e+04
-6.082026953125000000e+04
-6.082516015625000000e+04
-6.082657031250000000e+04
-6.082446484375000000e+04
-6.082983984375000000e+04
-6.085676562500000000e+04
-6.081932812500000000e+04
-6.084143750000000000e+04
-6.084376562500000000e+04
-6.084439062500000000e+04
-6.084620312500000000e+04
-6.082925000000000000e+04
-6.085296484375000000e+04
-6.084230468750000000e+04
-6.083631250000000000e+04
-6.085582421875000000e+04
-6.082064453125000000e+04
-6.085308984375000000e+04
-6.082514843750000000e+04
-6.082435156250000000e+04
-6.082550781250000000e+04
-6.085618359375000000e+04
-6.082971875000000000e+04
-6.082195703125000000e+04
-6.082319140625000000e+04
-6.082392578125000000e+04
-6.084228515625000000e+04
-6.082671484375000000e+04
-6.083428906250000000e+04
-6.085653906250000000e+04
-6.082198437500000000e+04
-6.085785546875000000e+04
-6.085454687500000000e+04
-6.083650390625000000e+04
-6.084908984375000000e+04
-6.082540625000000000e+04
-6.084325000000000000e+04
-6.084461718750000000e+04
-6.082876562500000000e+04
-6.085127343750000000e+04
-6.082622265625000000e+04
-6.082432421875000000e+04
-6.082207421875000000e+04
-6.081871093750000000e+04
-6.085445312500000000e+04
-6.082527734375000000e+04
-6.085265234375000000e+04
-6.084326171875000000e+04
-6.084038281250000000e+04
-6.082671093750000000e+04
-6.082944921875000000e+04
-6.082387890625000000e+04
-6.084319921875000000e+04
-6.083002734375000000e+04
-6.085407031250000000e+04
-6.082563671875000000e+04
-6.085298828125000000e+04
-6.082820703125000000e+04
-6.082540234375000000e+04
-6.084846093750000000e+04
-6.082705859375000000e+04
-6.085333593750000000e+04
-6.082324218750000000e+04
-6.085575390625000000e+04
-6.082132812500000000e+04
-6.085341406250000000e+04
-6.084072656250000000e+04
-6.082904296875000000e+04
-6.081358984375000000e+04
-6.085100000000000000e+04
-6.082615625000000000e+04
-6.084080078125000000e+04
-6.084430078125000000e+04
-6.082716015625000000e+04
-6.084903906250000000e+04
-6.082273046875000000e+04
-6.085554296875000000e+04
-6.085335156250000000e+04
-6.082825390625000000e+04
-6.084498046875000000e+04
-6.082747656250000000e+04
-6.085784765625000000e+04
-6.082987109375000000e+04
-6.082535937500000000e+04
-6.082789843750000000e+04
-6.082318359375000000e+04
-6.084395703125000000e+04
-6.084326562500000000e+04
-6.084419140625000000e+04
-6.082896875000000000e+04
-6.085205468750000000e+04
-6.082183984375000000e+04
-6.082398828125000000e+04
-6.082080468750000000e+04
-6.082594140625000000e+04
-6.086181250000000000e+04
-6.087173046875000000e+04
-6.082480859375000000e+04
-6.082917578125000000e+04
-6.082767968750000000e+04
-6.082425000000000000e+04
-6.082541796875000000e+04
-6.085469531250000000e+04
-6.082412890625000000e+04
-6.084244921875000000e+04
-6.082081250000000000e+04
-6.083828125000000000e+04
-6.082570312500000000e+04
-6.084525390625000000e+04
-6.086178515625000000e+04
-6.082723828125000000e+04
-6.082365625000000000e+04
-6.083865625000000000e+04
-6.084055078125000000e+04
-6.082704687500000000e+04
-6.082198828125000000e+04
-6.083937109375000000e+04
-6.085501953125000000e+04
-6.085607421875000000e+04
-6.085504296875000000e+04
-6.082201562500000000e+04
-6.082317578125000000e+04
-6.082449609375000000e+04
-6.082173437500000000e+04
-6.083025781250000000e+04
-6.084392578125000000e+04
-6.085228906250000000e+04
-6.084378906250000000e+04
-6.082871875000000000e+04
-6.085285156250000000e+04
-6.085512890625000000e+04
-6.083825390625000000e+04
-6.082800000000000000e+04
-6.084111328125000000e+04
-6.082517968750000000e+04
-6.083935156250000000e+04
-6.085444531250000000e+04
-6.082230078125000000e+04
-6.082392968750000000e+04
-6.085641406250000000e+04
-6.082790234375000000e+04
-6.083369140625000000e+04
-6.082851953125000000e+04
-6.082377343750000000e+04
-6.082224609375000000e+04
-6.082547656250000000e+04
-6.082222265625000000e+04
-6.082638671875000000e+04
-6.086179687500000000e+04
-6.085651171875000000e+04
-6.082535546875000000e+04
-6.085514453125000000e+04
-6.082685937500000000e+04
-6.083994921875000000e+04
-6.082924218750000000e+04
-6.083356640625000000e+04
-6.085309375000000000e+04
-6.082768359375000000e+04
-6.083897265625000000e+04
-6.082698046875000000e+04
-6.084323828125000000e+04
-6.085425000000000000e+04
-6.085419531250000000e+04
-6.084000000000000000e+04
-6.083828906250000000e+04
-6.085339062500000000e+04
-6.083996875000000000e+04
-6.084287109375000000e+04
-6.082522656250000000e+04
-6.085673828125000000e+04
-6.083378125000000000e+04
-6.083108984375000000e+04
-6.083242578125000000e+04
-6.085575781250000000e+04
-6.082678906250000000e+04
-6.082948437500000000e+04
-6.082468359375000000e+04
-6.084218750000000000e+04
-6.082605859375000000e+04
-6.084262109375000000e+04
-6.083173828125000000e+04
-6.083382421875000000e+04
-6.082596484375000000e+04
-6.082178125000000000e+04
-6.084268750000000000e+04
-6.084003906250000000e+04
-6.082924609375000000e+04
-6.082240625000000000e+04
-6.085586328125000000e+04
-6.082688671875000000e+04
-6.084050781250000000e+04
-6.083719140625000000e+04
-6.081681250000000000e+04
-6.082382421875000000e+04
-6.086155078125000000e+04
-6.082463281250000000e+04
-6.082905078125000000e+04
-6.082889062500000000e+04
-6.082906250000000000e+04
-6.085546093750000000e+04
-6.082862890625000000e+04
-6.082316406250000000e+04
-6.082657421875000000e+04
-6.085723828125000000e+04
-6.084559765625000000e+04
-6.084222265625000000e+04
-6.085526171875000000e+04
-6.081792578125000000e+04
-6.082263281250000000e+04
-6.084104296875000000e+04
-6.084196875000000000e+04
-6.084521093750000000e+04
-6.084460156250000000e+04
-6.082432031250000000e+04
-6.085612109375000000e+04
-6.082802734375000000e+04
-6.085333593750000000e+04
-6.085040234375000000e+04
-6.082316796875000000e+04
-6.085464453125000000e+04
-6.084008593750000000e+04
-6.082330078125000000e+04
-6.082641015625000000e+04
-6.084383984375000000e+04
-6.084290234375000000e+04
-6.083936718750000000e+04
-6.085751562500000000e+04
-6.082518750000000000e+04
-6.082318750000000000e+04
-6.084870312500000000e+04
-6.082599609375000000e+04
-6.085482421875000000e+04
-6.085323046875000000e+04
-6.083821875000000000e+04
-6.084572656250000000e+04
-6.085488671875000000e+04
-6.085484375000000000e+04
-6.082390625000000000e+04
-6.083983593750000000e+04
-6.085412890625000000e+04
-6.083964062500000000e+04
-6.082737890625000000e+04
-6.084201171875000000e+04
-6.084616796875000000e+04
-6.081919531250000000e+04
-6.084693359375000000e+04
-6.082610546875000000e+04
-6.082857812500000000e+04
-6.083921484375000000e+04
-6.085658593750000000e+04
-6.085341406250000000e+04
-6.082331640625000000e+04
-6.082186328125000000e+04
-6.083970312500000000e+04
-6.082604687500000000e+04
-6.082530078125000000e+04
-6.084771484375000000e+04
-6.084269140625000000e+04
-6.087187109375000000e+04
-6.085127343750000000e+04
-6.082191406250000000e+04
-6.085249218750000000e+04
-6.082392578125000000e+04
-6.082659765625000000e+04
-6.082412109375000000e+04
-6.081961718750000000e+04
-6.082835156250000000e+04
-6.082511328125000000e+04
-6.084256640625000000e+04
-6.085766406250000000e+04
-6.082635937500000000e+04
-6.082764453125000000e+04
-6.083786328125000000e+04
-6.081748437500000000e+04
-6.085706640625000000e+04
-6.083999609375000000e+04
-6.086061718750000000e+04
-6.082319921875000000e+04
-6.082507031250000000e+04
-6.084150781250000000e+04
-6.084403125000000000e+04
-6.082347656250000000e+04
-6.085336328125000000e+04
-6.082582031250000000e+04
-6.082938281250000000e+04
-6.082847265625000000e+04
-6.082317968750000000e+04
-6.082966015625000000e+04
-6.085328125000000000e+04
-6.082330859375000000e+04
-6.085655859375000000e+04
-6.082852343750000000e+04
-6.085554296875000000e+04
-6.085078515625000000e+04
-6.082326171875000000e+04
-6.082458203125000000e+04
-6.082203125000000000e+04
-6.085694921875000000e+04
-6.083987890625000000e+04
-6.082724609375000000e+04
-6.082085937500000000e+04
-6.084083203125000000e+04
-6.082750781250000000e+04
-6.084962890625000000e+04
-6.085222656250000000e+04
-6.082879687500000000e+04
-6.084612500000000000e+04
-6.083990625000000000e+04
-6.082087109375000000e+04
-6.082866406250000000e+04
-6.085313281250000000e+04
-6.082626171875000000e+04
-6.082429296875000000e+04
-6.082832421875000000e+04
-6.085460937500000000e+04
-6.082366796875000000e+04
-6.082696484375000000e+04
-6.085217578125000000e+04
-6.083961718750000000e+04
-6.083635156250000000e+04
-6.084766796875000000e+04
-6.082299218750000000e+04
-6.085361718750000000e+04
-6.082794531250000000e+04
-6.082292968750000000e+04
-6.085438671875000000e+04
-6.082983593750000000e+04
-6.085102343750000000e+04
-6.082913281250000000e+04
-6.083830468750000000e+04
-6.082081250000000000e+04
-6.081722265625000000e+04
-6.083939062500000000e+04
-6.082880468750000000e+04
-6.082677734375000000e+04
-6.083418359375000000e+04
-6.082515625000000000e+04
-6.084058984375000000e+04
-6.085381250000000000e+04
-6.085358984375000000e+04
-6.085014453125000000e+04
-6.085783593750000000e+04
-6.082542187500000000e+04
-6.082296875000000000e+04
-6.085005078125000000e+04
-6.081902343750000000e+04
-6.083884765625000000e+04
-6.082217578125000000e+04
-6.085527734375000000e+04
-6.082714062500000000e+04
-6.082498828125000000e+04
-6.085291796875000000e+04
-6.082749609375000000e+04
-6.082627734375000000e+04
-6.082146875000000000e+04
-6.085304687500000000e+04
-6.082803906250000000e+04
-6.084821875000000000e+04
-6.082203906250000000e+04
-6.085543359375000000e+04
-6.084012890625000000e+04
-6.083720703125000000e+04
-6.085500781250000000e+04
-6.082407031250000000e+04
-6.082351171875000000e+04
-6.082451562500000000e+04
-6.082335546875000000e+04
-6.082380078125000000e+04
-6.082064843750000000e+04
-6.085839843750000000e+04
-6.082826953125000000e+04
-6.082153125000000000e+04
-6.084992968750000000e+04
-6.085491015625000000e+04
-6.085027734375000000e+04
-6.084082031250000000e+04
-6.082719921875000000e+04
-6.083880078125000000e+04
-6.083871875000000000e+04
-6.085747656250000000e+04
-6.082708984375000000e+04
-6.085383593750000000e+04
-6.084104687500000000e+04
-6.083983203125000000e+04
-6.084297656250000000e+04
-6.082415625000000000e+04
-6.082846484375000000e+04
-6.082157031250000000e+04
-6.083270703125000000e+04
-6.083586328125000000e+04
-6.084191015625000000e+04
-6.083231250000000000e+04
-6.082641015625000000e+04
-6.084575781250000000e+04
-6.083918750000000000e+04
-6.082649609375000000e+04
-6.085423437500000000e+04
-6.084407421875000000e+04
-6.082583984375000000e+04
-6.085431640625000000e+04
-6.084256640625000000e+04
-6.082192968750000000e+04
-6.085180859375000000e+04
-6.082812890625000000e+04
-6.082905859375000000e+04
-6.086319140625000000e+04
-6.082143359375000000e+04
-6.085457421875000000e+04
-6.082957812500000000e+04
-6.083567187500000000e+04
-6.082327734375000000e+04
-6.084409765625000000e+04
-6.083072265625000000e+04
-6.083257812500000000e+04
-6.085565234375000000e+04
-6.085129687500000000e+04
-6.082546484375000000e+04
-6.085290625000000000e+04
-6.082197265625000000e+04
-6.082992187500000000e+04
-6.085217968750000000e+04
-6.081995312500000000e+04
-6.082299609375000000e+04
-6.082144921875000000e+04
-6.083123437500000000e+04
-6.085239843750000000e+04
-6.083613671875000000e+04
-6.082375781250000000e+04
-6.082148437500000000e+04
-6.084138281250000000e+04
-6.085473046875000000e+04
-6.082638281250000000e+04
-6.082521093750000000e+04
-6.085222656250000000e+04
-6.083181250000000000e+04
-6.082447656250000000e+04
-6.082600390625000000e+04
-6.082411328125000000e+04
-6.084495703125000000e+04
-6.082255468750000000e+04
-6.082706250000000000e+04
-6.084239843750000000e+04
-6.082169921875000000e+04
-6.082711328125000000e+04
-6.082595312500000000e+04
-6.082633593750000000e+04
-6.082528125000000000e+04
-6.082337500000000000e+04
-6.083983984375000000e+04
-6.082132812500000000e+04
-6.082750390625000000e+04
-6.085647265625000000e+04
-6.084541796875000000e+04
-6.083869921875000000e+04
-6.085344531250000000e+04
-6.083029687500000000e+04
-6.085485937500000000e+04
-6.082517968750000000e+04
-6.083919140625000000e+04
-6.083778906250000000e+04
-6.084753515625000000e+04
-6.085288671875000000e+04
-6.082666796875000000e+04
-6.082196875000000000e+04
-6.082477343750000000e+04
-6.085488281250000000e+04
-6.084266406250000000e+04
-6.082757421875000000e+04
-6.082538281250000000e+04
-6.082350390625000000e+04
-6.082216406250000000e+04
-6.082548437500000000e+04
-6.082570312500000000e+04
-6.084946484375000000e+04
-6.085411718750000000e+04
-6.081980078125000000e+04
-6.082705859375000000e+04
-6.082299218750000000e+04
-6.084101171875000000e+04
-6.083550781250000000e+04
-6.085171875000000000e+04
-6.084129687500000000e+04
-6.084024609375000000e+04
-6.083828125000000000e+04
-6.085309765625000000e+04
-6.082889843750000000e+04
-6.084107421875000000e+04
-6.084593750000000000e+04
-6.083072656250000000e+04
-6.083318750000000000e+04
-6.083064453125000000e+04
-6.082687500000000000e+04
-6.085641406250000000e+04
-6.082249609375000000e+04
-6.084562500000000000e+04
-6.084626171875000000e+04
-6.084127734375000000e+04
-6.085698046875000000e+04
-6.082681250000000000e+04
-6.084017968750000000e+04
-6.082372656250000000e+04
-6.082546875000000000e+04
-6.084017968750000000e+04
-6.085401953125000000e+04
-6.083916015625000000e+04
-6.081980078125000000e+04
-6.082378906250000000e+04
-6.085773437500000000e+04
-6.082346875000000000e+04
-6.082684375000000000e+04
-6.082238671875000000e+04
-6.082709375000000000e+04
-6.082588671875000000e+04
-6.082101562500000000e+04
-6.082462109375000000e+04
-6.082738671875000000e+04
-6.086801171875000000e+04
-6.085480859375000000e+04
-6.083337890625000000e+04
-6.085096093750000000e+04
-6.084567187500000000e+04
-6.082902734375000000e+04
-6.083899609375000000e+04
-6.082347265625000000e+04
-6.085476171875000000e+04
-6.082916796875000000e+04
-6.082407031250000000e+04
-6.085600390625000000e+04
-6.081521875000000000e+04
-6.082906640625000000e+04
-6.084282812500000000e+04
-6.082371484375000000e+04
-6.082385546875000000e+04
-6.083956250000000000e+04
-6.084207421875000000e+04
-6.085136328125000000e+04
-6.082902734375000000e+04
-6.082846875000000000e+04
-6.085256250000000000e+04
-6.082517187500000000e+04
-6.081617187500000000e+04
-6.085407421875000000e+04
-6.085785937500000000e+04
-6.082895703125000000e+04
