-6.832427024841308594e+00 8.360385894775390625e+00 -9.785868644714355469e+00 8.360385894775390625e+00 -9.963504791259765625e+00 2.238099336624145508e+00 -9.785868644714355469e+00 2.238099336624145508e+00 -4.778992652893066406e+00
1.376394939422607422e+01 9.331080436706542969e+00 -1.622341513633728027e+00 9.331080436706542969e+00 -3.860145950317382812e+01 -1.303269100189208984e+01 -1.622341513633728027e+00 -1.303269100189208984e+01 -9.683238983154296875e+00
-3.005785751342773438e+01 8.831290245056152344e+00 3.738290071487426758e+00 8.831290245056152344e+00 -2.573430824279785156e+01 -1.691226005554199219e+01 3.738290071487426758e+00 -1.691226005554199219e+01 -1.378688716888427734e+01
-4.507191848754882812e+01 2.761491537094116211e+00 -2.309456062316894531e+01 2.761491537094116211e+00 -4.896894073486328125e+01 8.962316513061523438e+00 -2.309456062316894531e+01 8.962316513061523438e+00 -1.998503303527832031e+01
7.193784236907958984e+00 -2.596524953842163086e+00 -1.121253681182861328e+01 -2.596524953842163086e+00 -3.672481536865234375e+01 9.774480819702148438e+00 -1.121253681182861328e+01 9.774480819702148438e+00 -2.434988498687744141e+00
-6.662756347656250000e+01 1.125755500793457031e+01 6.926267623901367188e+00 1.125755500793457031e+01 -3.746588516235351562e+01 6.416572093963623047e+00 6.926267623901367188e+00 6.416572093963623047e+00 -6.665559768676757812e+00
-3.918227005004882812e+01 -5.540829181671142578e+00 3.152888774871826172e+00 -5.540829181671142578e+00 7.123733997344970703e+00 6.997616767883300781e+00 3.152888774871826172e+00 6.997616767883300781e+00 -6.794204235076904297e+00
2.591975021362304688e+01 -1.804062128067016602e+00 1.638680267333984375e+01 -1.804062128067016602e+00 -1.062317728996276855e+00 1.750309944152832031e+00 1.638680267333984375e+01 1.750309944152832031e+00 2.329414844512939453e+00
-3.057181358337402344e+01 -4.043533802032470703e+00 6.003313064575195312e+00 -4.043533802032470703e+00 -3.394049072265625000e+01 1.779275131225585938e+01 6.003313064575195312e+00 1.779275131225585938e+01 8.543973922729492188e+00
-1.829276657104492188e+01 -2.438571453094482422e+00 5.818216800689697266e+00 -2.438571453094482422e+00 -2.311809730529785156e+01 -1.052819442749023438e+01 5.818216800689697266e+00 -1.052819442749023438e+01 -1.149320220947265625e+01
-1.342372226715087891e+01 5.353707313537597656e+00 6.342738628387451172e+00 5.353707313537597656e+00 -1.795689392089843750e+01 4.594438076019287109e+00 6.342738628387451172e+00 4.594438076019287109e+00 8.382342338562011719e+00
7.807152271270751953e+00 -7.322957992553710938e+00 -8.134288787841796875e+00 -7.322957992553710938e+00 -9.651342034339904785e-01 1.240266132354736328e+01 -8.134288787841796875e+00 1.240266132354736328e+01 -2.724289417266845703e+00
9.807927131652832031e+00 -1.128828430175781250e+01 3.374341201782226562e+01 -1.128828430175781250e+01 6.754761219024658203e+00 9.743706703186035156e+00 3.374341201782226562e+01 9.743706703186035156e+00 -1.535246467590332031e+01
-2.518796539306640625e+01 1.661989402770996094e+01 -1.849251556396484375e+01 1.661989402770996094e+01 -4.858770751953125000e+01 8.472658157348632812e+00 -1.849251556396484375e+01 8.472658157348632812e+00 -3.007985877990722656e+01
-6.593216896057128906e+00 1.052403926849365234e+00 5.800267696380615234e+00 1.052403926849365234e+00 -1.132856941223144531e+01 -1.008593273162841797e+01 5.800267696380615234e+00 -1.008593273162841797e+01 -7.675875663757324219e+00
-1.348997020721435547e+01 5.634446620941162109e+00 -8.398528099060058594e+00 5.634446620941162109e+00 -1.101219367980957031e+01 1.315526962280273438e+01 -8.398528099060058594e+00 1.315526962280273438e+01 -2.511914730072021484e+00
-1.744250106811523438e+01 -1.141743373870849609e+01 7.618606090545654297e+00 -1.141743373870849609e+01 -2.750142669677734375e+01 -3.367209911346435547e+00 7.618606090545654297e+00 -3.367209911346435547e+00 -5.823380947113037109e+00
-2.132284927368164062e+01 -5.860868930816650391e+00 -4.153912544250488281e+00 -5.860868930816650391e+00 -1.538051605224609375e+01 1.951309967041015625e+01 -4.153912544250488281e+00 1.951309967041015625e+01 -2.959977149963378906e+01
-7.035957336425781250e+00 -8.318186998367309570e-01 3.949494957923889160e-01 -8.318186998367309570e-01 -1.379048442840576172e+01 1.300280952453613281e+01 3.949494957923889160e-01 1.300280952453613281e+01 -1.930696105957031250e+01
-3.316616439819335938e+01 -6.769520759582519531e+00 1.986186408996582031e+01 -6.769520759582519531e+00 -3.506830978393554688e+01 -1.964395880699157715e+00 1.986186408996582031e+01 -1.964395880699157715e+00 -3.837691116333007812e+01
-5.693913459777832031e+00 -9.773710250854492188e+00 -1.419761753082275391e+01 -9.773710250854492188e+00 -4.977558612823486328e+00 8.807701110839843750e+00 -1.419761753082275391e+01 8.807701110839843750e+00 -3.666816329956054688e+01
-1.208421707153320312e+01 -6.553938865661621094e+00 8.019307136535644531e+00 -6.553938865661621094e+00 -5.244483184814453125e+01 9.709960937500000000e+00 8.019307136535644531e+00 9.709960937500000000e+00 -2.006593894958496094e+01
-9.245194435119628906e+00 -1.253120613098144531e+01 -4.025856018066406250e+00 -1.253120613098144531e+01 -6.754578113555908203e+00 6.179538369178771973e-01 -4.025856018066406250e+00 6.179538369178771973e-01 -9.583217620849609375e+00
-3.530134963989257812e+01 8.384362220764160156e+00 -2.527766466140747070e+00 8.384362220764160156e+00 4.409597873687744141e+00 7.442471981048583984e+00 -2.527766466140747070e+00 7.442471981048583984e+00 -2.370948791503906250e+01
1.711347770690917969e+01 3.111163854598999023e+00 7.337980270385742188e+00 3.111163854598999023e+00 1.566604995727539062e+01 1.617620277404785156e+01 7.337980270385742188e+00 1.617620277404785156e+01 -1.471257877349853516e+01
-6.418083667755126953e+00 7.360170841217041016e+00 1.439819049835205078e+01 7.360170841217041016e+00 -2.114065408706665039e+00 -1.626463890075683594e+01 1.439819049835205078e+01 -1.626463890075683594e+01 -1.820497989654541016e+00
2.733746528625488281e+00 7.758777618408203125e+00 1.400217437744140625e+01 7.758777618408203125e+00 -9.960638046264648438e+00 1.084716224670410156e+01 1.400217437744140625e+01 1.084716224670410156e+01 -3.672662496566772461e+00
9.212837815284729004e-01 -1.406253576278686523e+00 1.906252670288085938e+01 -1.406253576278686523e+00 7.800272464752197266e+00 1.203732776641845703e+01 1.906252670288085938e+01 1.203732776641845703e+01 -9.738368034362792969e+00
-1.313890647888183594e+01 3.686490535736083984e+00 -5.475465774536132812e+00 3.686490535736083984e+00 -7.641914844512939453e+00 -9.498066902160644531e+00 -5.475465774536132812e+00 -9.498066902160644531e+00 -2.310054779052734375e+01
-4.916018486022949219e+00 9.597434043884277344e+00 9.131856918334960938e+00 9.597434043884277344e+00 -2.594523429870605469e+01 -1.224075126647949219e+01 9.131856918334960938e+00 -1.224075126647949219e+01 -1.838677597045898438e+01
-1.907071876525878906e+01 -1.333487415313720703e+01 -1.546689319610595703e+01 -1.333487415313720703e+01 5.680383682250976562e+00 -1.014613056182861328e+01 -1.546689319610595703e+01 -1.014613056182861328e+01 -2.634876251220703125e+01
1.925155997276306152e+00 -6.417357444763183594e+00 1.346544647216796875e+01 -6.417357444763183594e+00 -4.786003494262695312e+01 -8.655406951904296875e+00 1.346544647216796875e+01 -8.655406951904296875e+00 9.999796867370605469e+00
-1.667796969413757324e+00 6.641587257385253906e+00 8.665061950683593750e+00 6.641587257385253906e+00 -3.360565567016601562e+01 2.296616554260253906e+00 8.665061950683593750e+00 2.296616554260253906e+00 3.012616872787475586e+00
-1.853150177001953125e+01 -2.066556930541992188e+01 7.740774154663085938e+00 -2.066556930541992188e+01 -1.297706317901611328e+01 -5.205683231353759766e+00 7.740774154663085938e+00 -5.205683231353759766e+00 -5.607858180999755859e+00
-1.646500396728515625e+01 5.169270515441894531e+00 -4.265675544738769531e+00 5.169270515441894531e+00 1.918426132202148438e+01 5.835717916488647461e-01 -4.265675544738769531e+00 5.835717916488647461e-01 -3.617772340774536133e+00
2.674385786056518555e+00 4.291481018066406250e+00 1.295173454284667969e+01 4.291481018066406250e+00 -4.830880641937255859e+00 3.415090799331665039e+00 1.295173454284667969e+01 3.415090799331665039e+00 -8.753101348876953125e+00
-1.411679267883300781e+01 1.094191455841064453e+01 -6.950428485870361328e+00 1.094191455841064453e+01 -4.949356460571289062e+01 1.175394058227539062e+01 -6.950428485870361328e+00 1.175394058227539062e+01 -2.171375465393066406e+01
2.111788034439086914e+00 -1.382575511932373047e+00 1.062514305114746094e+01 -1.382575511932373047e+00 -8.793968200683593750e+00 3.134391403198242188e+01 1.062514305114746094e+01 3.134391403198242188e+01 -1.223249816894531250e+01
-1.797925186157226562e+01 -2.740346431732177734e+00 1.884354400634765625e+01 -2.740346431732177734e+00 -1.951856422424316406e+01 -5.516599655151367188e+00 1.884354400634765625e+01 -5.516599655151367188e+00 -2.409451103210449219e+01
-2.860558891296386719e+01 2.683150768280029297e+00 -8.464082717895507812e+00 2.683150768280029297e+00 -5.764930725097656250e+01 4.222321987152099609e+00 -8.464082717895507812e+00 4.222321987152099609e+00 -3.018577766418457031e+01
-2.738882637023925781e+01 6.255362033843994141e+00 -1.342168521881103516e+01 6.255362033843994141e+00 -4.578157424926757812e+01 -8.193909645080566406e+00 -1.342168521881103516e+01 -8.193909645080566406e+00 -4.242867279052734375e+01
-1.386051476001739502e-01 -8.504759788513183594e+00 1.799963951110839844e+01 -8.504759788513183594e+00 -3.796417236328125000e+01 1.855812835693359375e+01 1.799963951110839844e+01 1.855812835693359375e+01 -9.638115167617797852e-01
-2.918915748596191406e+01 -5.719236850738525391e+00 -5.371096134185791016e+00 -5.719236850738525391e+00 -4.569432830810546875e+01 -2.385120630264282227e+00 -5.371096134185791016e+00 -2.385120630264282227e+00 -1.434871292114257812e+01
6.930228471755981445e-01 5.970053195953369141e+00 -3.123680114746093750e+01 5.970053195953369141e+00 -1.287042999267578125e+01 -3.413239955902099609e+00 -3.123680114746093750e+01 -3.413239955902099609e+00 -1.698332190513610840e+00
-2.249989700317382812e+01 2.083359718322753906e+01 -3.920021533966064453e+00 2.083359718322753906e+01 -1.482066917419433594e+01 1.112355709075927734e+01 -3.920021533966064453e+00 1.112355709075927734e+01 -1.910584449768066406e+01
-3.446753692626953125e+01 1.854103851318359375e+01 -1.145984935760498047e+01 1.854103851318359375e+01 -2.809294700622558594e+01 7.137491703033447266e-01 -1.145984935760498047e+01 7.137491703033447266e-01 -4.850234985351562500e+00
1.785761833190917969e+01 -1.179438114166259766e+01 -6.499044418334960938e+00 -1.179438114166259766e+01 -2.002333068847656250e+01 1.059817695617675781e+01 -6.499044418334960938e+00 1.059817695617675781e+01 -6.893436431884765625e+00
-3.277867555618286133e+00 -4.691517829895019531e+00 6.051651954650878906e+00 -4.691517829895019531e+00 3.331657886505126953e+00 -2.734323024749755859e+00 6.051651954650878906e+00 -2.734323024749755859e+00 -3.303414916992187500e+01
-4.201516342163085938e+01 -2.169932746887207031e+01 -2.185568237304687500e+01 -2.169932746887207031e+01 -3.831738662719726562e+01 -5.788115262985229492e-01 -2.185568237304687500e+01 -5.788115262985229492e-01 -1.839495277404785156e+01
1.668094253540039062e+01 -3.715732812881469727e+00 5.148649215698242188e+00 -3.715732812881469727e+00 1.332594013214111328e+01 -1.704241180419921875e+01 5.148649215698242188e+00 -1.704241180419921875e+01 9.743453025817871094e+00
-1.322067546844482422e+01 3.833244562149047852e+00 -5.087814331054687500e+00 3.833244562149047852e+00 -1.600681686401367188e+01 1.001337242126464844e+01 -5.087814331054687500e+00 1.001337242126464844e+01 -1.558911037445068359e+01
-9.881627082824707031e+00 -1.410565614700317383e+00 1.303846454620361328e+01 -1.410565614700317383e+00 -3.051442718505859375e+01 -3.110122299194335938e+01 1.303846454620361328e+01 -3.110122299194335938e+01 -1.170206451416015625e+01
4.163938522338867188e+00 -2.309838676452636719e+01 2.866299390792846680e+00 -2.309838676452636719e+01 -2.705557060241699219e+01 -8.908965110778808594e+00 2.866299390792846680e+00 -8.908965110778808594e+00 1.182994365692138672e+01
1.284295749664306641e+01 -1.998260498046875000e+01 -9.710500717163085938e+00 -1.998260498046875000e+01 -3.552590560913085938e+01 -2.759457349777221680e+00 -9.710500717163085938e+00 -2.759457349777221680e+00 -1.238375067710876465e+00
1.959166526794433594e+01 1.926489353179931641e+00 3.434498977661132812e+01 1.926489353179931641e+00 9.484913825988769531e+00 -1.101097106933593750e+01 3.434498977661132812e+01 -1.101097106933593750e+01 -6.453451156616210938e+00
-1.371080970764160156e+01 -1.491183948516845703e+01 7.184055328369140625e+00 -1.491183948516845703e+01 -4.245370864868164062e+01 1.453817367553710938e+01 7.184055328369140625e+00 1.453817367553710938e+01 -1.086813259124755859e+01
-3.420259857177734375e+01 -6.603047847747802734e+00 -3.690652608871459961e+00 -6.603047847747802734e+00 -4.675318908691406250e+01 6.358906745910644531e+00 -3.690652608871459961e+00 6.358906745910644531e+00 -2.627907752990722656e+01
-2.308073043823242188e+01 -3.821381807327270508e+00 -1.593574643135070801e+00 -3.821381807327270508e+00 -3.158777427673339844e+01 -2.312404060363769531e+01 -1.593574643135070801e+00 -2.312404060363769531e+01 -4.120185089111328125e+01
-2.145447158813476562e+01 1.774680328369140625e+01 8.667172431945800781e+00 1.774680328369140625e+01 -1.987650489807128906e+01 7.862643241882324219e+00 8.667172431945800781e+00 7.862643241882324219e+00 -9.430842399597167969e+00
-4.368447113037109375e+01 1.466810512542724609e+01 3.471185207366943359e+00 1.466810512542724609e+01 -2.400751876831054688e+01 5.740820884704589844e+00 3.471185207366943359e+00 5.740820884704589844e+00 3.760389089584350586e+00
-5.850941085815429688e+01 -5.985496997833251953e+00 8.385063171386718750e+00 -5.985496997833251953e+00 -1.714571189880371094e+01 -7.733843803405761719e+00 8.385063171386718750e+00 -7.733843803405761719e+00 5.571223258972167969e+00
-3.333962678909301758e+00 -7.228587627410888672e+00 -1.286722469329833984e+01 -7.228587627410888672e+00 -1.769272613525390625e+01 -3.401844024658203125e+00 -1.286722469329833984e+01 -3.401844024658203125e+00 -1.126672363281250000e+01
-2.258868598937988281e+01 -8.327057838439941406e+00 9.012905120849609375e+00 -8.327057838439941406e+00 -7.365287780761718750e+00 -1.364130115509033203e+01 9.012905120849609375e+00 -1.364130115509033203e+01 6.197137832641601562e+00
-4.196826171875000000e+01 -6.217596054077148438e+00 -2.029249382019042969e+01 -6.217596054077148438e+00 -2.380558967590332031e+01 -7.093739986419677734e+00 -2.029249382019042969e+01 -7.093739986419677734e+00 -2.689689826965332031e+01
-9.033589363098144531e+00 -1.745999717712402344e+01 1.129576683044433594e+01 -1.745999717712402344e+01 3.636993026733398438e+01 -1.689839935302734375e+01 1.129576683044433594e+01 -1.689839935302734375e+01 6.657385230064392090e-01
-3.167359161376953125e+01 -5.625982761383056641e+00 -5.919941425323486328e+00 -5.625982761383056641e+00 -3.026622772216796875e+00 -7.186111211776733398e-01 -5.919941425323486328e+00 -7.186111211776733398e-01 -4.222379207611083984e+00
-2.913077163696289062e+01 2.741570854187011719e+01 3.634887635707855225e-01 2.741570854187011719e+01 -1.734171485900878906e+01 1.073513984680175781e+01 3.634887635707855225e-01 1.073513984680175781e+01 -2.380757904052734375e+01
-2.313021278381347656e+01 7.023306846618652344e+00 2.015612602233886719e+01 7.023306846618652344e+00 -3.004001045227050781e+01 1.656428098678588867e+00 2.015612602233886719e+01 1.656428098678588867e+00 -2.615510368347167969e+01
5.691992759704589844e+00 3.067815065383911133e+00 -1.344725513458251953e+01 3.067815065383911133e+00 -3.598045349121093750e+01 2.215028524398803711e+00 -1.344725513458251953e+01 2.215028524398803711e+00 -4.774113464355468750e+01
-1.584563255310058594e+01 8.003145217895507812e+00 -1.670320129394531250e+01 8.003145217895507812e+00 -2.579711341857910156e+01 -5.814267396926879883e-01 -1.670320129394531250e+01 -5.814267396926879883e-01 -1.636061096191406250e+01
-3.480413055419921875e+01 -3.249981641769409180e+00 2.509931087493896484e+00 -3.249981641769409180e+00 -5.086535644531250000e+01 -9.912817955017089844e+00 2.509931087493896484e+00 -9.912817955017089844e+00 -9.836552619934082031e+00
4.559038639068603516e+00 -2.861409950256347656e+01 -3.262170076370239258e+00 -2.861409950256347656e+01 -3.271248245239257812e+01 -1.611474633216857910e+00 -3.262170076370239258e+00 -1.611474633216857910e+00 -2.718537712097167969e+01
7.017849922180175781e+00 6.545819282531738281e+00 1.143874359130859375e+01 6.545819282531738281e+00 -1.452243137359619141e+01 -2.818746805191040039e+00 1.143874359130859375e+01 -2.818746805191040039e+00 6.314260482788085938e+00
-2.041507911682128906e+01 3.802860736846923828e+00 7.344820022583007812e+00 3.802860736846923828e+00 -6.062572002410888672e+00 -1.103680419921875000e+01 7.344820022583007812e+00 -1.103680419921875000e+01 4.516689300537109375e+00
6.646528840065002441e-01 -2.361477661132812500e+01 2.803280115127563477e+00 -2.361477661132812500e+01 -3.809071731567382812e+01 1.152167677879333496e+00 2.803280115127563477e+00 1.152167677879333496e+00 -2.551986122131347656e+01
-2.495099544525146484e+00 5.275148153305053711e-01 -2.012079811096191406e+01 5.275148153305053711e-01 -8.091732025146484375e+00 1.510114431381225586e+00 -2.012079811096191406e+01 1.510114431381225586e+00 -5.390509605407714844e+00
-3.511292266845703125e+01 -6.530381202697753906e+00 -5.408311843872070312e+00 -6.530381202697753906e+00 -3.585892105102539062e+01 3.589028418064117432e-01 -5.408311843872070312e+00 3.589028418064117432e-01 -3.335202407836914062e+01
5.598607063293457031e-01 3.441492617130279541e-01 1.330680370330810547e+01 3.441492617130279541e-01 -9.717536926269531250e+00 1.188030242919921875e+00 1.330680370330810547e+01 1.188030242919921875e+00 5.402721405029296875e+00
-9.340018272399902344e+00 -4.317148327827453613e-01 -9.973189353942871094e+00 -4.317148327827453613e-01 5.264251232147216797e+00 9.367808341979980469e+00 -9.973189353942871094e+00 9.367808341979980469e+00 -3.689954757690429688e+01
1.261331558227539062e+01 3.383120059967041016e+00 -1.037355136871337891e+01 3.383120059967041016e+00 -1.394872379302978516e+01 -9.380865097045898438e+00 -1.037355136871337891e+01 -9.380865097045898438e+00 -2.317992782592773438e+01
-7.016421318054199219e+00 -2.317029380798339844e+01 1.058970642089843750e+01 -2.317029380798339844e+01 1.554751968383789062e+01 8.330035209655761719e+00 1.058970642089843750e+01 8.330035209655761719e+00 -1.102539443969726562e+01
-2.836035919189453125e+01 -5.142949581146240234e+00 3.473832130432128906e+00 -5.142949581146240234e+00 4.154078006744384766e+00 -6.358555555343627930e-01 3.473832130432128906e+00 -6.358555555343627930e-01 -1.895318031311035156e+01
-1.409911155700683594e+01 -3.638178348541259766e+00 2.879265785217285156e+00 -3.638178348541259766e+00 -7.337668609619140625e+01 5.779454231262207031e+00 2.879265785217285156e+00 5.779454231262207031e+00 -4.069260025024414062e+01
-3.019832420349121094e+01 1.114509391784667969e+01 2.232761192321777344e+01 1.114509391784667969e+01 -1.416464328765869141e+01 5.580425262451171875e+00 2.232761192321777344e+01 5.580425262451171875e+00 -8.594291806221008301e-01
-6.503333091735839844e+00 -3.134330272674560547e+00 -5.991486907005310059e-01 -3.134330272674560547e+00 -1.473322963714599609e+01 -1.812809258699417114e-01 -5.991486907005310059e-01 -1.812809258699417114e-01 -3.246064186096191406e+00
1.489850902557373047e+01 6.803024768829345703e+00 8.355128288269042969e+00 6.803024768829345703e+00 2.080425453186035156e+01 2.961796283721923828e+00 8.355128288269042969e+00 2.961796283721923828e+00 -4.561027050018310547e+00
-3.321659088134765625e+01 5.448843955993652344e+00 -4.175682365894317627e-01 5.448843955993652344e+00 -3.651357650756835938e+01 -7.289597034454345703e+00 -4.175682365894317627e-01 -7.289597034454345703e+00 -7.236951351165771484e+00
4.410636425018310547e+00 7.961963653564453125e+00 1.043659114837646484e+01 7.961963653564453125e+00 -6.283863186836242676e-01 1.175571441650390625e+01 1.043659114837646484e+01 1.175571441650390625e+01 -2.120412635803222656e+01
-6.830427169799804688e+00 -1.383841705322265625e+01 3.132775306701660156e+00 -1.383841705322265625e+01 -2.260692405700683594e+01 1.021532654762268066e+00 3.132775306701660156e+00 1.021532654762268066e+00 9.256028175354003906e+00
-1.890782928466796875e+01 5.965633869171142578e+00 8.515595436096191406e+00 5.965633869171142578e+00 -5.295881271362304688e+01 4.042690753936767578e+00 8.515595436096191406e+00 4.042690753936767578e+00 -2.928865242004394531e+01
-7.430489540100097656e+00 9.792742729187011719e+00 -1.517408180236816406e+01 9.792742729187011719e+00 -1.177864742279052734e+01 2.766954421997070312e+01 -1.517408180236816406e+01 2.766954421997070312e+01 -2.538184547424316406e+01
-4.307714843750000000e+01 1.335307884216308594e+01 4.789175033569335938e+00 1.335307884216308594e+01 -2.174133682250976562e+01 -9.045141220092773438e+00 4.789175033569335938e+00 -9.045141220092773438e+00 -2.915574645996093750e+01
-2.841943168640136719e+01 -5.308894634246826172e+00 7.898942947387695312e+00 -5.308894634246826172e+00 -2.954721450805664062e+01 2.031613922119140625e+01 7.898942947387695312e+00 2.031613922119140625e+01 -2.077984809875488281e+01
-4.860459899902343750e+01 -1.344533443450927734e+01 1.579515171051025391e+01 -1.344533443450927734e+01 -1.925990867614746094e+01 -3.412926435470581055e+00 1.579515171051025391e+01 -3.412926435470581055e+00 -3.994567108154296875e+01
-4.253316879272460938e+01 1.346926021575927734e+01 5.119999408721923828e+00 1.346926021575927734e+01 -1.902483177185058594e+01 -7.436383247375488281e+00 5.119999408721923828e+00 -7.436383247375488281e+00 -1.492671298980712891e+01
-2.575630569458007812e+01 -8.932655334472656250e+00 1.388338947296142578e+01 -8.932655334472656250e+00 -2.684460830688476562e+01 -7.944021701812744141e+00 1.388338947296142578e+01 -7.944021701812744141e+00 -5.240232086181640625e+01
-3.681368112564086914e+00 2.572051811218261719e+01 1.954687952995300293e+00 2.572051811218261719e+01 -1.788750267028808594e+01 8.449557304382324219e+00 1.954687952995300293e+00 8.449557304382324219e+00 -7.679054260253906250e+00
8.011367797851562500e+00 8.777917861938476562e+00 1.763287925720214844e+01 8.777917861938476562e+00 -1.752467536926269531e+01 -1.324663829803466797e+01 1.763287925720214844e+01 -1.324663829803466797e+01 -1.424672985076904297e+01
-3.178210830688476562e+01 9.966779708862304688e+00 6.549759864807128906e+00 9.966779708862304688e+00 -1.718795394897460938e+01 -5.754585266113281250e+00 6.549759864807128906e+00 -5.754585266113281250e+00 -1.232910251617431641e+01
-4.731322097778320312e+01 -2.082477569580078125e+01 7.049774646759033203e+00 -2.082477569580078125e+01 -7.246229553222656250e+01 7.664932727813720703e+00 7.049774646759033203e+00 7.664932727813720703e+00 -4.072033309936523438e+01
-8.862717628479003906e+00 -1.908524894714355469e+01 -8.531468391418457031e+00 -1.908524894714355469e+01 -3.754101943969726562e+01 5.836466312408447266e+00 -8.531468391418457031e+00 5.836466312408447266e+00 -2.357954025268554688e+01
-3.558323287963867188e+01 6.181224346160888672e+00 1.464400482177734375e+01 6.181224346160888672e+00 -2.344244384765625000e+01 -5.035218715667724609e+00 1.464400482177734375e+01 -5.035218715667724609e+00 -3.665925979614257812e+01
-4.413303375244140625e+01 1.028351068496704102e+00 1.037452602386474609e+01 1.028351068496704102e+00 -2.222813224792480469e+01 5.337873935699462891e+00 1.037452602386474609e+01 5.337873935699462891e+00 -2.558128547668457031e+01
1.547256827354431152e+00 1.690130114555358887e+00 1.764486312866210938e+00 1.690130114555358887e+00 -3.506433486938476562e+01 -1.687858009338378906e+01 1.764486312866210938e+00 -1.687858009338378906e+01 -1.377571296691894531e+01
-9.945960998535156250e+00 7.564870357513427734e+00 -2.025641822814941406e+01 7.564870357513427734e+00 -2.734147834777832031e+01 1.590050792694091797e+01 -2.025641822814941406e+01 1.590050792694091797e+01 -4.791758728027343750e+01
1.455398178100585938e+01 -8.357824325561523438e+00 6.849923610687255859e+00 -8.357824325561523438e+00 -4.263319396972656250e+01 -4.557789325714111328e+00 6.849923610687255859e+00 -4.557789325714111328e+00 -4.087984466552734375e+01
-9.281935691833496094e+00 8.606088638305664062e+00 -9.236263275146484375e+00 8.606088638305664062e+00 -5.060913085937500000e+01 5.109078884124755859e+00 -9.236263275146484375e+00 5.109078884124755859e+00 1.440052747726440430e+00
5.264424324035644531e+00 6.680384635925292969e+00 1.542972660064697266e+01 6.680384635925292969e+00 -6.233158588409423828e+00 2.506389236450195312e+01 1.542972660064697266e+01 2.506389236450195312e+01 -4.929462814331054688e+01
-2.098711967468261719e+00 -8.114599227905273438e+00 1.923212623596191406e+01 -8.114599227905273438e+00 1.463788509368896484e+01 -3.939571142196655273e+00 1.923212623596191406e+01 -3.939571142196655273e+00 -8.402552604675292969e-01
-2.925251770019531250e+01 2.358180999755859375e+00 -7.822887420654296875e+00 2.358180999755859375e+00 -8.903111457824707031e+00 1.829399490356445312e+01 -7.822887420654296875e+00 1.829399490356445312e+01 -4.233371734619140625e+01
-8.274655789136886597e-02 7.946703910827636719e+00 7.453435420989990234e+00 7.946703910827636719e+00 -1.793208122253417969e+01 6.157549381256103516e+00 7.453435420989990234e+00 6.157549381256103516e+00 -2.181274223327636719e+01
-3.249888658523559570e+00 -1.538096427917480469e+01 9.904453277587890625e+00 -1.538096427917480469e+01 -9.091891288757324219e+00 8.980278968811035156e+00 9.904453277587890625e+00 8.980278968811035156e+00 -2.568085289001464844e+01
6.444946289062500000e+00 -1.016628170013427734e+01 2.084601783752441406e+01 -1.016628170013427734e+01 -3.754764175415039062e+01 -9.444927215576171875e+00 2.084601783752441406e+01 -9.444927215576171875e+00 -1.993082427978515625e+01
1.224495697021484375e+01 -4.934635162353515625e+00 -3.938631772994995117e+00 -4.934635162353515625e+00 -1.172983264923095703e+01 1.791470527648925781e+01 -3.938631772994995117e+00 1.791470527648925781e+01 -2.201946640014648438e+01
-9.990961074829101562e+00 -1.543716716766357422e+01 1.683236312866210938e+01 -1.543716716766357422e+01 9.986107826232910156e+00 1.974982452392578125e+01 1.683236312866210938e+01 1.974982452392578125e+01 9.633386611938476562e+00
-1.734149932861328125e+01 1.020830154418945312e+01 1.930732131004333496e+00 1.020830154418945312e+01 -3.662935256958007812e+01 -1.668926429748535156e+01 1.930732131004333496e+00 -1.668926429748535156e+01 -2.509706115722656250e+01
-2.926108169555664062e+01 -2.190039253234863281e+01 1.481785297393798828e+01 -2.190039253234863281e+01 -2.001048851013183594e+01 6.843358039855957031e+00 1.481785297393798828e+01 6.843358039855957031e+00 -5.682640838623046875e+01
-4.947375106811523438e+01 2.664402246475219727e+00 -9.756402969360351562e+00 2.664402246475219727e+00 -2.564689445495605469e+01 8.014092445373535156e+00 -9.756402969360351562e+00 8.014092445373535156e+00 -2.859960556030273438e+01
-3.310200119018554688e+01 1.607979583740234375e+01 -1.085365009307861328e+01 1.607979583740234375e+01 -4.744007110595703125e+01 7.498656272888183594e+00 -1.085365009307861328e+01 7.498656272888183594e+00 -4.458598327636718750e+01
-2.454840850830078125e+01 -5.689472675323486328e+00 3.618285751342773438e+01 -5.689472675323486328e+00 -2.180931472778320312e+01 1.897989988327026367e+00 3.618285751342773438e+01 1.897989988327026367e+00 1.977691078186035156e+01
-1.228832054138183594e+01 1.183055973052978516e+01 1.025940036773681641e+01 1.183055973052978516e+01 -2.858051490783691406e+01 -4.710547327995300293e-01 1.025940036773681641e+01 -4.710547327995300293e-01 -2.175759696960449219e+01
-2.003972244262695312e+01 1.260567855834960938e+01 -3.985198020935058594e+00 1.260567855834960938e+01 -1.780421853065490723e+00 1.496240615844726562e+00 -3.985198020935058594e+00 1.496240615844726562e+00 -1.282624149322509766e+01
3.867051601409912109e-01 5.127175807952880859e+00 1.511175823211669922e+01 5.127175807952880859e+00 -9.010663986206054688e+00 3.449206590652465820e+00 1.511175823211669922e+01 3.449206590652465820e+00 1.132387351989746094e+01
-8.270440101623535156e-01 -2.735054731369018555e+00 1.356170940399169922e+01 -2.735054731369018555e+00 -8.152361869812011719e+00 -1.965272712707519531e+01 1.356170940399169922e+01 -1.965272712707519531e+01 -2.873541069030761719e+01
-1.925320434570312500e+01 -9.850289344787597656e+00 -1.449623852968215942e-01 -9.850289344787597656e+00 -1.272897481918334961e+00 7.945139884948730469e+00 -1.449623852968215942e-01 7.945139884948730469e+00 -2.199609184265136719e+01
-6.755777359008789062e+00 -9.246222496032714844e+00 7.468834877014160156e+00 -9.246222496032714844e+00 -4.912441074848175049e-01 -1.315240573883056641e+01 7.468834877014160156e+00 -1.315240573883056641e+01 -3.079705238342285156e+01
-6.151395797729492188e+01 -3.378372192382812500e+00 -3.649094581604003906e+00 -3.378372192382812500e+00 -3.306745147705078125e+01 -6.386074542999267578e+00 -3.649094581604003906e+00 -6.386074542999267578e+00 -4.551008987426757812e+01
-1.611057281494140625e+01 1.652717208862304688e+01 -4.583144187927246094e+00 1.652717208862304688e+01 1.292240619659423828e+01 1.561608028411865234e+01 -4.583144187927246094e+00 1.561608028411865234e+01 -2.513158607482910156e+01
1.394027900695800781e+01 1.008137226104736328e+01 1.459504604339599609e+01 1.008137226104736328e+01 8.447687149047851562e+00 2.255623817443847656e+00 1.459504604339599609e+01 2.255623817443847656e+00 -3.866800308227539062e+01
-2.025708389282226562e+01 5.152653217315673828e+00 -2.567414283752441406e+00 5.152653217315673828e+00 -2.225162696838378906e+01 -8.440926551818847656e+00 -2.567414283752441406e+00 -8.440926551818847656e+00 -1.133060836791992188e+01