1.772500038146972656e+01 0.000000000000000000e+00 0.000000000000000000e+00 -1.539999991655349731e-01 1.828700065612792969e+01 0.000000000000000000e+00 7.800000160932540894e-02 9.499999880790710449e-02 1.826799964904785156e+01
1.856800079345703125e+01 0.000000000000000000e+00 0.000000000000000000e+00 -1.609999984502792358e-01 1.915699958801269531e+01 0.000000000000000000e+00 8.100000023841857910e-02 9.899999946355819702e-02 1.913800048828125000e+01
1.856500053405761719e+01 0.000000000000000000e+00 0.000000000000000000e+00 -1.609999984502792358e-01 1.915299987792968750e+01 0.000000000000000000e+00 8.100000023841857910e-02 9.899999946355819702e-02 1.913400077819824219e+01
1.832500076293945312e+01 0.000000000000000000e+00 0.000000000000000000e+00 -1.589999943971633911e-01 1.890699958801269531e+01 0.000000000000000000e+00 7.999999821186065674e-02 9.799999743700027466e-02 1.888699913024902344e+01
1.858099937438964844e+01 0.000000000000000000e+00 0.000000000000000000e+00 -1.609999984502792358e-01 1.917099952697753906e+01 0.000000000000000000e+00 8.100000023841857910e-02 9.899999946355819702e-02 1.915099906921386719e+01
1.846999931335449219e+01 0.000000000000000000e+00 0.000000000000000000e+00 -1.599999964237213135e-01 1.905599975585937500e+01 0.000000000000000000e+00 8.100000023841857910e-02 9.899999946355819702e-02 1.903599929809570312e+01
1.845999908447265625e+01 0.000000000000000000e+00 0.000000000000000000e+00 -1.599999964237213135e-01 1.904500007629394531e+01 0.000000000000000000e+00 8.100000023841857910e-02 9.899999946355819702e-02 1.902599906921386719e+01
1.847599983215332031e+01 0.000000000000000000e+00 0.000000000000000000e+00 -1.599999964237213135e-01 1.906200027465820312e+01 0.000000000000000000e+00 8.100000023841857910e-02 9.899999946355819702e-02 1.904199981689453125e+01
1.884300041198730469e+01 0.000000000000000000e+00 0.000000000000000000e+00 -1.640000045299530029e-01 1.944000053405761719e+01 0.000000000000000000e+00 8.200000226497650146e-02 1.010000035166740417e-01 1.942000007629394531e+01
1.863999938964843750e+01 0.000000000000000000e+00 0.000000000000000000e+00 -1.620000004768371582e-01 1.923100090026855469e+01 0.000000000000000000e+00 8.200000226497650146e-02 1.000000014901161194e-01 1.921100044250488281e+01
1.856299972534179688e+01 0.000000000000000000e+00 0.000000000000000000e+00 -1.609999984502792358e-01 1.915200042724609375e+01 0.000000000000000000e+00 8.100000023841857910e-02 9.899999946355819702e-02 1.913199996948242188e+01
1.852099990844726562e+01 0.000000000000000000e+00 0.000000000000000000e+00 -1.609999984502792358e-01 1.910899925231933594e+01 0.000000000000000000e+00 8.100000023841857910e-02 9.899999946355819702e-02 1.908900070190429688e+01
1.863400077819824219e+01 0.000000000000000000e+00 0.000000000000000000e+00 -1.620000004768371582e-01 1.922500038146972656e+01 0.000000000000000000e+00 8.200000226497650146e-02 9.899999946355819702e-02 1.920499992370605469e+01
1.845400047302246094e+01 0.000000000000000000e+00 0.000000000000000000e+00 -1.599999964237213135e-01 1.903899955749511719e+01 0.000000000000000000e+00 8.100000023841857910e-02 9.899999946355819702e-02 1.901899909973144531e+01
1.867900085449218750e+01 0.000000000000000000e+00 0.000000000000000000e+00 -1.620000004768371582e-01 1.927199935913085938e+01 0.000000000000000000e+00 8.200000226497650146e-02 1.000000014901161194e-01 1.925200080871582031e+01
1.849099922180175781e+01 0.000000000000000000e+00 0.000000000000000000e+00 -1.609999984502792358e-01 1.907799911499023438e+01 0.000000000000000000e+00 8.100000023841857910e-02 9.899999946355819702e-02 1.905800056457519531e+01
1.856299972534179688e+01 0.000000000000000000e+00 0.000000000000000000e+00 -1.609999984502792358e-01 1.915200042724609375e+01 0.000000000000000000e+00 8.100000023841857910e-02 9.899999946355819702e-02 1.913199996948242188e+01
1.868000030517578125e+01 0.000000000000000000e+00 0.000000000000000000e+00 -1.620000004768371582e-01 1.927199935913085938e+01 0.000000000000000000e+00 8.200000226497650146e-02 1.000000014901161194e-01 1.925200080871582031e+01
1.871899986267089844e+01 0.000000000000000000e+00 0.000000000000000000e+00 -1.630000025033950806e-01 1.931299972534179688e+01 0.000000000000000000e+00 8.200000226497650146e-02 1.000000014901161194e-01 1.929299926757812500e+01
1.877599906921386719e+01 0.000000000000000000e+00 0.000000000000000000e+00 -1.630000025033950806e-01 1.937199974060058594e+01 0.000000000000000000e+00 8.200000226497650146e-02 1.000000014901161194e-01 1.935199928283691406e+01
1.861700057983398438e+01 0.000000000000000000e+00 0.000000000000000000e+00 -1.620000004768371582e-01 1.920800018310546875e+01 0.000000000000000000e+00 8.100000023841857910e-02 9.899999946355819702e-02 1.918799972534179688e+01
1.848699951171875000e+01 0.000000000000000000e+00 0.000000000000000000e+00 -1.599999964237213135e-01 1.907299995422363281e+01 0.000000000000000000e+00 8.100000023841857910e-02 9.899999946355819702e-02 1.905400085449218750e+01
1.758799934387207031e+01 0.000000000000000000e+00 0.000000000000000000e+00 -1.529999971389770508e-01 1.814599990844726562e+01 0.000000000000000000e+00 7.699999958276748657e-02 9.399999678134918213e-02 1.812700080871582031e+01
1.798100090026855469e+01 0.000000000000000000e+00 0.000000000000000000e+00 -1.560000032186508179e-01 1.855200004577636719e+01 0.000000000000000000e+00 7.900000363588333130e-02 9.600000083446502686e-02 1.853199958801269531e+01
1.804400062561035156e+01 0.000000000000000000e+00 0.000000000000000000e+00 -1.570000052452087402e-01 1.861700057983398438e+01 0.000000000000000000e+00 7.900000363588333130e-02 9.600000083446502686e-02 1.859700012207031250e+01
1.828400039672851562e+01 0.000000000000000000e+00 0.000000000000000000e+00 -1.589999943971633911e-01 1.886400032043457031e+01 0.000000000000000000e+00 7.999999821186065674e-02 9.799999743700027466e-02 1.884399986267089844e+01
1.809700012207031250e+01 0.000000000000000000e+00 0.000000000000000000e+00 -1.570000052452087402e-01 1.867099952697753906e+01 0.000000000000000000e+00 7.900000363588333130e-02 9.700000286102294922e-02 1.865200042724609375e+01
1.805400085449218750e+01 0.000000000000000000e+00 0.000000000000000000e+00 -1.570000052452087402e-01 1.862700080871582031e+01 0.000000000000000000e+00 7.900000363588333130e-02 9.600000083446502686e-02 1.860700035095214844e+01
1.813699913024902344e+01 0.000000000000000000e+00 0.000000000000000000e+00 -1.570000052452087402e-01 1.871199989318847656e+01 0.000000000000000000e+00 7.900000363588333130e-02 9.700000286102294922e-02 1.869300079345703125e+01
1.824900054931640625e+01 0.000000000000000000e+00 0.000000000000000000e+00 -1.580000072717666626e-01 1.882799911499023438e+01 0.000000000000000000e+00 7.999999821186065674e-02 9.700000286102294922e-02 1.880800056457519531e+01
1.825000000000000000e+01 0.000000000000000000e+00 0.000000000000000000e+00 -1.580000072717666626e-01 1.882900047302246094e+01 0.000000000000000000e+00 7.999999821186065674e-02 9.700000286102294922e-02 1.880900001525878906e+01
1.833699989318847656e+01 0.000000000000000000e+00 0.000000000000000000e+00 -1.589999943971633911e-01 1.891900062561035156e+01 0.000000000000000000e+00 7.999999821186065674e-02 9.799999743700027466e-02 1.889900016784667969e+01
1.842300033569335938e+01 0.000000000000000000e+00 0.000000000000000000e+00 -1.599999964237213135e-01 1.900699996948242188e+01 0.000000000000000000e+00 8.100000023841857910e-02 9.799999743700027466e-02 1.898699951171875000e+01
1.815800094604492188e+01 0.000000000000000000e+00 0.000000000000000000e+00 -1.580000072717666626e-01 1.873399925231933594e+01 0.000000000000000000e+00 7.900000363588333130e-02 9.700000286102294922e-02 1.871400070190429688e+01
1.829599952697753906e+01 0.000000000000000000e+00 0.000000000000000000e+00 -1.589999943971633911e-01 1.887700080871582031e+01 0.000000000000000000e+00 7.999999821186065674e-02 9.799999743700027466e-02 1.885700035095214844e+01
1.841399955749511719e+01 0.000000000000000000e+00 0.000000000000000000e+00 -1.599999964237213135e-01 1.899900054931640625e+01 0.000000000000000000e+00 8.100000023841857910e-02 9.799999743700027466e-02 1.897900009155273438e+01
1.841099929809570312e+01 0.000000000000000000e+00 0.000000000000000000e+00 -1.599999964237213135e-01 1.899500083923339844e+01 0.000000000000000000e+00 8.100000023841857910e-02 9.799999743700027466e-02 1.897500038146972656e+01
1.853000068664550781e+01 0.000000000000000000e+00 0.000000000000000000e+00 -1.609999984502792358e-01 1.911800003051757812e+01 0.000000000000000000e+00 8.100000023841857910e-02 9.899999946355819702e-02 1.909799957275390625e+01
1.834700012207031250e+01 0.000000000000000000e+00 0.000000000000000000e+00 -1.589999943971633911e-01 1.892900085449218750e+01 0.000000000000000000e+00 7.999999821186065674e-02 9.799999743700027466e-02 1.890900039672851562e+01
1.829199981689453125e+01 0.000000000000000000e+00 0.000000000000000000e+00 -1.589999943971633911e-01 1.887199974060058594e+01 0.000000000000000000e+00 7.999999821186065674e-02 9.799999743700027466e-02 1.885199928283691406e+01
1.823699951171875000e+01 0.000000000000000000e+00 0.000000000000000000e+00 -1.580000072717666626e-01 1.881599998474121094e+01 0.000000000000000000e+00 7.999999821186065674e-02 9.700000286102294922e-02 1.879599952697753906e+01
1.826000022888183594e+01 0.000000000000000000e+00 0.000000000000000000e+00 -1.589999943971633911e-01 1.883900070190429688e+01 0.000000000000000000e+00 7.999999821186065674e-02 9.700000286102294922e-02 1.881900024414062500e+01
1.826099967956542969e+01 0.000000000000000000e+00 0.000000000000000000e+00 -1.589999943971633911e-01 1.884000015258789062e+01 0.000000000000000000e+00 7.999999821186065674e-02 9.700000286102294922e-02 1.881999969482421875e+01
1.833900070190429688e+01 0.000000000000000000e+00 0.000000000000000000e+00 -1.589999943971633911e-01 1.892099952697753906e+01 0.000000000000000000e+00 7.999999821186065674e-02 9.799999743700027466e-02 1.890200042724609375e+01
1.839599990844726562e+01 0.000000000000000000e+00 0.000000000000000000e+00 -1.599999964237213135e-01 1.897900009155273438e+01 0.000000000000000000e+00 8.100000023841857910e-02 9.799999743700027466e-02 1.895999908447265625e+01
1.824300003051757812e+01 0.000000000000000000e+00 0.000000000000000000e+00 -1.580000072717666626e-01 1.882200050354003906e+01 0.000000000000000000e+00 7.999999821186065674e-02 9.700000286102294922e-02 1.880200004577636719e+01
1.839399909973144531e+01 0.000000000000000000e+00 0.000000000000000000e+00 -1.599999964237213135e-01 1.897800064086914062e+01 0.000000000000000000e+00 7.999999821186065674e-02 9.799999743700027466e-02 1.895800018310546875e+01
1.800300025939941406e+01 0.000000000000000000e+00 0.000000000000000000e+00 -1.560000032186508179e-01 1.857399940490722656e+01 0.000000000000000000e+00 7.900000363588333130e-02 9.600000083446502686e-02 1.855500030517578125e+01
1.829100036621093750e+01 0.000000000000000000e+00 0.000000000000000000e+00 -1.589999943971633911e-01 1.887100028991699219e+01 0.000000000000000000e+00 7.999999821186065674e-02 9.799999743700027466e-02 1.885199928283691406e+01
1.856200027465820312e+01 0.000000000000000000e+00 0.000000000000000000e+00 -1.609999984502792358e-01 1.915099906921386719e+01 0.000000000000000000e+00 8.100000023841857910e-02 9.899999946355819702e-02 1.913100051879882812e+01
1.862800025939941406e+01 0.000000000000000000e+00 0.000000000000000000e+00 -1.620000004768371582e-01 1.921899986267089844e+01 0.000000000000000000e+00 8.200000226497650146e-02 9.899999946355819702e-02 1.919899940490722656e+01
1.875799942016601562e+01 0.000000000000000000e+00 0.000000000000000000e+00 -1.630000025033950806e-01 1.935300064086914062e+01 0.000000000000000000e+00 8.200000226497650146e-02 1.000000014901161194e-01 1.933300018310546875e+01
1.876899909973144531e+01 0.000000000000000000e+00 0.000000000000000000e+00 -1.630000025033950806e-01 1.936499977111816406e+01 0.000000000000000000e+00 8.200000226497650146e-02 1.000000014901161194e-01 1.934499931335449219e+01
1.865200042724609375e+01 0.000000000000000000e+00 0.000000000000000000e+00 -1.620000004768371582e-01 1.924300003051757812e+01 0.000000000000000000e+00 8.200000226497650146e-02 1.000000014901161194e-01 1.922299957275390625e+01
1.875200080871582031e+01 0.000000000000000000e+00 0.000000000000000000e+00 -1.630000025033950806e-01 1.934700012207031250e+01 0.000000000000000000e+00 8.200000226497650146e-02 1.000000014901161194e-01 1.932600021362304688e+01
1.903700065612792969e+01 0.000000000000000000e+00 0.000000000000000000e+00 -1.650000065565109253e-01 1.964100074768066406e+01 0.000000000000000000e+00 8.299999684095382690e-02 1.019999980926513672e-01 1.962000083923339844e+01
1.873800086975097656e+01 0.000000000000000000e+00 0.000000000000000000e+00 -1.630000025033950806e-01 1.933200073242187500e+01 0.000000000000000000e+00 8.200000226497650146e-02 1.000000014901161194e-01 1.931200027465820312e+01
1.886400032043457031e+01 0.000000000000000000e+00 0.000000000000000000e+00 -1.640000045299530029e-01 1.946299934387207031e+01 0.000000000000000000e+00 8.299999684095382690e-02 1.010000035166740417e-01 1.944199943542480469e+01
1.867000007629394531e+01 0.000000000000000000e+00 0.000000000000000000e+00 -1.620000004768371582e-01 1.926300048828125000e+01 0.000000000000000000e+00 8.200000226497650146e-02 1.000000014901161194e-01 1.924300003051757812e+01
1.889599990844726562e+01 0.000000000000000000e+00 0.000000000000000000e+00 -1.640000045299530029e-01 1.949600028991699219e+01 0.000000000000000000e+00 8.299999684095382690e-02 1.010000035166740417e-01 1.947500038146972656e+01
1.891399955749511719e+01 0.000000000000000000e+00 0.000000000000000000e+00 -1.640000045299530029e-01 1.951399993896484375e+01 0.000000000000000000e+00 8.299999684095382690e-02 1.010000035166740417e-01 1.949399948120117188e+01
1.870999908447265625e+01 0.000000000000000000e+00 0.000000000000000000e+00 -1.620000004768371582e-01 1.930400085449218750e+01 0.000000000000000000e+00 8.200000226497650146e-02 1.000000014901161194e-01 1.928400039672851562e+01
1.894400024414062500e+01 0.000000000000000000e+00 0.000000000000000000e+00 -1.640000045299530029e-01 1.954500007629394531e+01 0.000000000000000000e+00 8.299999684095382690e-02 1.010000035166740417e-01 1.952499961853027344e+01
1.887000083923339844e+01 0.000000000000000000e+00 0.000000000000000000e+00 -1.640000045299530029e-01 1.946800041198730469e+01 0.000000000000000000e+00 8.299999684095382690e-02 1.010000035166740417e-01 1.944799995422363281e+01
1.875699996948242188e+01 0.000000000000000000e+00 0.000000000000000000e+00 -1.630000025033950806e-01 1.935199928283691406e+01 0.000000000000000000e+00 8.200000226497650146e-02 1.000000014901161194e-01 1.933200073242187500e+01
1.879999923706054688e+01 0.000000000000000000e+00 0.000000000000000000e+00 -1.630000025033950806e-01 1.939599990844726562e+01 0.000000000000000000e+00 8.200000226497650146e-02 1.000000014901161194e-01 1.937599945068359375e+01
1.891600036621093750e+01 0.000000000000000000e+00 0.000000000000000000e+00 -1.640000045299530029e-01 1.951600074768066406e+01 0.000000000000000000e+00 8.299999684095382690e-02 1.010000035166740417e-01 1.949600028991699219e+01
1.885199928283691406e+01 0.000000000000000000e+00 0.000000000000000000e+00 -1.640000045299530029e-01 1.945000076293945312e+01 0.000000000000000000e+00 8.299999684095382690e-02 1.010000035166740417e-01 1.943000030517578125e+01
1.872900009155273438e+01 0.000000000000000000e+00 0.000000000000000000e+00 -1.630000025033950806e-01 1.932299995422363281e+01 0.000000000000000000e+00 8.200000226497650146e-02 1.000000014901161194e-01 1.930299949645996094e+01
1.859499931335449219e+01 0.000000000000000000e+00 0.000000000000000000e+00 -1.609999984502792358e-01 1.918499946594238281e+01 0.000000000000000000e+00 8.100000023841857910e-02 9.899999946355819702e-02 1.916500091552734375e+01
1.772500038146972656e+01 0.000000000000000000e+00 0.000000000000000000e+00 -1.539999991655349731e-01 1.828700065612792969e+01 0.000000000000000000e+00 7.800000160932540894e-02 9.499999880790710449e-02 1.826799964904785156e+01
1.838299942016601562e+01 0.000000000000000000e+00 0.000000000000000000e+00 -1.599999964237213135e-01 1.896599960327148438e+01 0.000000000000000000e+00 7.999999821186065674e-02 9.799999743700027466e-02 1.894599914550781250e+01
1.819400024414062500e+01 0.000000000000000000e+00 0.000000000000000000e+00 -1.580000072717666626e-01 1.877099990844726562e+01 0.000000000000000000e+00 7.999999821186065674e-02 9.700000286102294922e-02 1.875200080871582031e+01
1.836400032043457031e+01 0.000000000000000000e+00 0.000000000000000000e+00 -1.589999943971633911e-01 1.894599914550781250e+01 0.000000000000000000e+00 7.999999821186065674e-02 9.799999743700027466e-02 1.892700004577636719e+01
1.826499938964843750e+01 0.000000000000000000e+00 0.000000000000000000e+00 -1.589999943971633911e-01 1.884499931335449219e+01 0.000000000000000000e+00 7.999999821186065674e-02 9.799999743700027466e-02 1.882500076293945312e+01
1.826899909973144531e+01 0.000000000000000000e+00 0.000000000000000000e+00 -1.589999943971633911e-01 1.884900093078613281e+01 0.000000000000000000e+00 7.999999821186065674e-02 9.799999743700027466e-02 1.882900047302246094e+01
1.847200012207031250e+01 0.000000000000000000e+00 0.000000000000000000e+00 -1.599999964237213135e-01 1.905800056457519531e+01 0.000000000000000000e+00 8.100000023841857910e-02 9.899999946355819702e-02 1.903800010681152344e+01
1.831399917602539062e+01 0.000000000000000000e+00 0.000000000000000000e+00 -1.589999943971633911e-01 1.889500045776367188e+01 0.000000000000000000e+00 7.999999821186065674e-02 9.799999743700027466e-02 1.887599945068359375e+01
1.855999946594238281e+01 0.000000000000000000e+00 0.000000000000000000e+00 -1.609999984502792358e-01 1.914900016784667969e+01 0.000000000000000000e+00 8.100000023841857910e-02 9.899999946355819702e-02 1.912899971008300781e+01
1.819199943542480469e+01 0.000000000000000000e+00 0.000000000000000000e+00 -1.580000072717666626e-01 1.876899909973144531e+01 0.000000000000000000e+00 7.999999821186065674e-02 9.700000286102294922e-02 1.874900054931640625e+01
1.848299980163574219e+01 0.000000000000000000e+00 0.000000000000000000e+00 -1.599999964237213135e-01 1.906900024414062500e+01 0.000000000000000000e+00 8.100000023841857910e-02 9.899999946355819702e-02 1.904999923706054688e+01
1.837100028991699219e+01 0.000000000000000000e+00 0.000000000000000000e+00 -1.589999943971633911e-01 1.895400047302246094e+01 0.000000000000000000e+00 7.999999821186065674e-02 9.799999743700027466e-02 1.893400001525878906e+01
1.832500076293945312e+01 0.000000000000000000e+00 0.000000000000000000e+00 -1.589999943971633911e-01 1.890600013732910156e+01 0.000000000000000000e+00 7.999999821186065674e-02 9.799999743700027466e-02 1.888699913024902344e+01
1.843899917602539062e+01 0.000000000000000000e+00 0.000000000000000000e+00 -1.599999964237213135e-01 1.902400016784667969e+01 0.000000000000000000e+00 8.100000023841857910e-02 9.799999743700027466e-02 1.900499916076660156e+01
1.836800003051757812e+01 0.000000000000000000e+00 0.000000000000000000e+00 -1.589999943971633911e-01 1.895100021362304688e+01 0.000000000000000000e+00 7.999999821186065674e-02 9.799999743700027466e-02 1.893099975585937500e+01
1.860000038146972656e+01 0.000000000000000000e+00 0.000000000000000000e+00 -1.609999984502792358e-01 1.919000053405761719e+01 0.000000000000000000e+00 8.100000023841857910e-02 9.899999946355819702e-02 1.917099952697753906e+01
1.847400093078613281e+01 0.000000000000000000e+00 0.000000000000000000e+00 -1.599999964237213135e-01 1.905999946594238281e+01 0.000000000000000000e+00 8.100000023841857910e-02 9.899999946355819702e-02 1.904100036621093750e+01
1.847100067138671875e+01 0.000000000000000000e+00 0.000000000000000000e+00 -1.599999964237213135e-01 1.905699920654296875e+01 0.000000000000000000e+00 8.100000023841857910e-02 9.899999946355819702e-02 1.903700065612792969e+01
1.836899948120117188e+01 0.000000000000000000e+00 0.000000000000000000e+00 -1.589999943971633911e-01 1.895199966430664062e+01 0.000000000000000000e+00 7.999999821186065674e-02 9.799999743700027466e-02 1.893199920654296875e+01
1.833399963378906250e+01 0.000000000000000000e+00 0.000000000000000000e+00 -1.589999943971633911e-01 1.891500091552734375e+01 0.000000000000000000e+00 7.999999821186065674e-02 9.799999743700027466e-02 1.889599990844726562e+01
1.848999977111816406e+01 0.000000000000000000e+00 0.000000000000000000e+00 -1.609999984502792358e-01 1.907699966430664062e+01 0.000000000000000000e+00 8.100000023841857910e-02 9.899999946355819702e-02 1.905699920654296875e+01
1.837700080871582031e+01 0.000000000000000000e+00 0.000000000000000000e+00 -1.599999964237213135e-01 1.895999908447265625e+01 0.000000000000000000e+00 7.999999821186065674e-02 9.799999743700027466e-02 1.894000053405761719e+01
1.831699943542480469e+01 0.000000000000000000e+00 0.000000000000000000e+00 -1.589999943971633911e-01 1.889800071716308594e+01 0.000000000000000000e+00 7.999999821186065674e-02 9.799999743700027466e-02 1.887800025939941406e+01
1.828800010681152344e+01 0.000000000000000000e+00 0.000000000000000000e+00 -1.589999943971633911e-01 1.886800003051757812e+01 0.000000000000000000e+00 7.999999821186065674e-02 9.799999743700027466e-02 1.884799957275390625e+01
1.778800010681152344e+01 0.000000000000000000e+00 0.000000000000000000e+00 -1.539999991655349731e-01 1.835300064086914062e+01 0.000000000000000000e+00 7.800000160932540894e-02 9.499999880790710449e-02 1.833300018310546875e+01
1.830900001525878906e+01 0.000000000000000000e+00 0.000000000000000000e+00 -1.589999943971633911e-01 1.888999938964843750e+01 0.000000000000000000e+00 7.999999821186065674e-02 9.799999743700027466e-02 1.887000083923339844e+01
1.826799964904785156e+01 0.000000000000000000e+00 0.000000000000000000e+00 -1.589999943971633911e-01 1.884799957275390625e+01 0.000000000000000000e+00 7.999999821186065674e-02 9.799999743700027466e-02 1.882799911499023438e+01
1.831299972534179688e+01 0.000000000000000000e+00 0.000000000000000000e+00 -1.589999943971633911e-01 1.889399909973144531e+01 0.000000000000000000e+00 7.999999821186065674e-02 9.799999743700027466e-02 1.887400054931640625e+01
1.841500091552734375e+01 0.000000000000000000e+00 0.000000000000000000e+00 -1.599999964237213135e-01 1.900000000000000000e+01 0.000000000000000000e+00 8.100000023841857910e-02 9.799999743700027466e-02 1.897999954223632812e+01
1.869799995422363281e+01 0.000000000000000000e+00 0.000000000000000000e+00 -1.620000004768371582e-01 1.929100036621093750e+01 0.000000000000000000e+00 8.200000226497650146e-02 1.000000014901161194e-01 1.927099990844726562e+01
1.888400077819824219e+01 0.000000000000000000e+00 0.000000000000000000e+00 -1.640000045299530029e-01 1.948299980163574219e+01 0.000000000000000000e+00 8.299999684095382690e-02 1.010000035166740417e-01 1.946199989318847656e+01
1.884099960327148438e+01 0.000000000000000000e+00 0.000000000000000000e+00 -1.640000045299530029e-01 1.943799972534179688e+01 0.000000000000000000e+00 8.200000226497650146e-02 1.010000035166740417e-01 1.941799926757812500e+01
1.886199951171875000e+01 0.000000000000000000e+00 0.000000000000000000e+00 -1.640000045299530029e-01 1.945999908447265625e+01 0.000000000000000000e+00 8.299999684095382690e-02 1.010000035166740417e-01 1.944000053405761719e+01
1.891399955749511719e+01 0.000000000000000000e+00 0.000000000000000000e+00 -1.640000045299530029e-01 1.951399993896484375e+01 0.000000000000000000e+00 8.299999684095382690e-02 1.010000035166740417e-01 1.949399948120117188e+01
1.907200050354003906e+01 0.000000000000000000e+00 0.000000000000000000e+00 -1.659999936819076538e-01 1.967700004577636719e+01 0.000000000000000000e+00 8.299999684095382690e-02 1.019999980926513672e-01 1.965699958801269531e+01
1.902000045776367188e+01 0.000000000000000000e+00 0.000000000000000000e+00 -1.650000065565109253e-01 1.962400054931640625e+01 0.000000000000000000e+00 8.299999684095382690e-02 1.019999980926513672e-01 1.960300064086914062e+01
1.882399940490722656e+01 0.000000000000000000e+00 0.000000000000000000e+00 -1.630000025033950806e-01 1.942200088500976562e+01 0.000000000000000000e+00 8.200000226497650146e-02 1.010000035166740417e-01 1.940099906921386719e+01
1.903700065612792969e+01 0.000000000000000000e+00 0.000000000000000000e+00 -1.650000065565109253e-01 1.963999938964843750e+01 0.000000000000000000e+00 8.299999684095382690e-02 1.019999980926513672e-01 1.962000083923339844e+01
1.915299987792968750e+01 0.000000000000000000e+00 0.000000000000000000e+00 -1.659999936819076538e-01 1.976000022888183594e+01 0.000000000000000000e+00 8.399999886751174927e-02 1.019999980926513672e-01 1.973999977111816406e+01
1.894700050354003906e+01 0.000000000000000000e+00 0.000000000000000000e+00 -1.640000045299530029e-01 1.954800033569335938e+01 0.000000000000000000e+00 8.299999684095382690e-02 1.010000035166740417e-01 1.952799987792968750e+01
1.881699943542480469e+01 0.000000000000000000e+00 0.000000000000000000e+00 -1.630000025033950806e-01 1.941399955749511719e+01 0.000000000000000000e+00 8.200000226497650146e-02 1.000000014901161194e-01 1.939399909973144531e+01
1.881100082397460938e+01 0.000000000000000000e+00 0.000000000000000000e+00 -1.630000025033950806e-01 1.940800094604492188e+01 0.000000000000000000e+00 8.200000226497650146e-02 1.000000014901161194e-01 1.938699913024902344e+01
1.902000045776367188e+01 0.000000000000000000e+00 0.000000000000000000e+00 -1.650000065565109253e-01 1.962299919128417969e+01 0.000000000000000000e+00 8.299999684095382690e-02 1.019999980926513672e-01 1.960300064086914062e+01
1.901399993896484375e+01 0.000000000000000000e+00 0.000000000000000000e+00 -1.650000065565109253e-01 1.961700057983398438e+01 0.000000000000000000e+00 8.299999684095382690e-02 1.019999980926513672e-01 1.959600067138671875e+01
1.873100090026855469e+01 0.000000000000000000e+00 0.000000000000000000e+00 -1.630000025033950806e-01 1.932500076293945312e+01 0.000000000000000000e+00 8.200000226497650146e-02 1.000000014901161194e-01 1.930500030517578125e+01
1.925300025939941406e+01 0.000000000000000000e+00 0.000000000000000000e+00 -1.669999957084655762e-01 1.986300086975097656e+01 0.000000000000000000e+00 8.399999886751174927e-02 1.030000001192092896e-01 1.984300041198730469e+01
1.957500076293945312e+01 0.000000000000000000e+00 0.000000000000000000e+00 -1.700000017881393433e-01 2.019599914550781250e+01 0.000000000000000000e+00 8.600000292062759399e-02 1.049999967217445374e-01 2.017499923706054688e+01
1.772500038146972656e+01 0.000000000000000000e+00 0.000000000000000000e+00 -1.539999991655349731e-01 1.828700065612792969e+01 0.000000000000000000e+00 7.800000160932540894e-02 9.499999880790710449e-02 1.826799964904785156e+01
1.766799926757812500e+01 0.000000000000000000e+00 0.000000000000000000e+00 -1.529999971389770508e-01 1.822900009155273438e+01 0.000000000000000000e+00 7.699999958276748657e-02 9.399999678134918213e-02 1.820999908447265625e+01
1.787400054931640625e+01 0.000000000000000000e+00 0.000000000000000000e+00 -1.550000011920928955e-01 1.844099998474121094e+01 0.000000000000000000e+00 7.800000160932540894e-02 9.499999880790710449e-02 1.842200088500976562e+01
1.815299987792968750e+01 0.000000000000000000e+00 0.000000000000000000e+00 -1.580000072717666626e-01 1.872800064086914062e+01 0.000000000000000000e+00 7.900000363588333130e-02 9.700000286102294922e-02 1.870899963378906250e+01
1.857399940490722656e+01 0.000000000000000000e+00 0.000000000000000000e+00 -1.609999984502792358e-01 1.916300010681152344e+01 0.000000000000000000e+00 8.100000023841857910e-02 9.899999946355819702e-02 1.914299964904785156e+01
1.875499916076660156e+01 0.000000000000000000e+00 0.000000000000000000e+00 -1.630000025033950806e-01 1.935000038146972656e+01 0.000000000000000000e+00 8.200000226497650146e-02 1.000000014901161194e-01 1.932999992370605469e+01
1.868899917602539062e+01 0.000000000000000000e+00 0.000000000000000000e+00 -1.620000004768371582e-01 1.928199958801269531e+01 0.000000000000000000e+00 8.200000226497650146e-02 1.000000014901161194e-01 1.926199913024902344e+01
1.863500022888183594e+01 0.000000000000000000e+00 0.000000000000000000e+00 -1.620000004768371582e-01 1.922599983215332031e+01 0.000000000000000000e+00 8.200000226497650146e-02 9.899999946355819702e-02 1.920599937438964844e+01
1.846699905395507812e+01 0.000000000000000000e+00 0.000000000000000000e+00 -1.599999964237213135e-01 1.905299949645996094e+01 0.000000000000000000e+00 8.100000023841857910e-02 9.899999946355819702e-02 1.903300094604492188e+01
1.847500038146972656e+01 0.000000000000000000e+00 0.000000000000000000e+00 -1.599999964237213135e-01 1.906100082397460938e+01 0.000000000000000000e+00 8.100000023841857910e-02 9.899999946355819702e-02 1.904199981689453125e+01
1.869599914550781250e+01 0.000000000000000000e+00 0.000000000000000000e+00 -1.620000004768371582e-01 1.928899955749511719e+01 0.000000000000000000e+00 8.200000226497650146e-02 1.000000014901161194e-01 1.926899909973144531e+01
1.884399986267089844e+01 0.000000000000000000e+00 0.000000000000000000e+00 -1.640000045299530029e-01 1.944199943542480469e+01 0.000000000000000000e+00 8.200000226497650146e-02 1.010000035166740417e-01 1.942099952697753906e+01
1.858399963378906250e+01 0.000000000000000000e+00 0.000000000000000000e+00 -1.609999984502792358e-01 1.917399978637695312e+01 0.000000000000000000e+00 8.100000023841857910e-02 9.899999946355819702e-02 1.915399932861328125e+01
1.854500007629394531e+01 0.000000000000000000e+00 0.000000000000000000e+00 -1.609999984502792358e-01 1.913400077819824219e+01 0.000000000000000000e+00 8.100000023841857910e-02 9.899999946355819702e-02 1.911400032043457031e+01
1.839699935913085938e+01 0.000000000000000000e+00 0.000000000000000000e+00 -1.599999964237213135e-01 1.898100090026855469e+01 0.000000000000000000e+00 8.100000023841857910e-02 9.799999743700027466e-02 1.896100044250488281e+01