-6.244278906250000000e+04
-6.237754296875000000e+04
-6.238025390625000000e+04
-6.238328125000000000e+04
-6.238067578125000000e+04
-6.238258203125000000e+04
-6.238249218750000000e+04
-6.238416796875000000e+04
-6.237582812500000000e+04
-6.237776171875000000e+04
-6.237885937500000000e+04
-6.238071093750000000e+04
-6.237701953125000000e+04
-6.237658593750000000e+04
-6.237648828125000000e+04
-6.237492968750000000e+04
-6.237686718750000000e+04
-6.237333593750000000e+04
-6.237371875000000000e+04
-6.237494531250000000e+04
-6.237987109375000000e+04
-6.238026953125000000e+04
-6.241372265625000000e+04
-6.240455078125000000e+04
-6.238691015625000000e+04
-6.238334375000000000e+04
-6.237980078125000000e+04
-6.238694140625000000e+04
-6.238384375000000000e+04
-6.238210937500000000e+04
-6.237871093750000000e+04
-6.238071875000000000e+04
-6.238401562500000000e+04
-6.238735156250000000e+04
-6.237943359375000000e+04
-6.238625781250000000e+04
-6.237966796875000000e+04
-6.237887109375000000e+04
-6.237969531250000000e+04
-6.237884765625000000e+04
-6.238250781250000000e+04
-6.238214062500000000e+04
-6.238359375000000000e+04
-6.238364843750000000e+04
-6.238081250000000000e+04
-6.238205859375000000e+04
-6.238360937500000000e+04
-6.240600390625000000e+04
-6.237488671875000000e+04
-6.237347656250000000e+04
-6.237448046875000000e+04
-6.237049218750000000e+04
-6.236992578125000000e+04
-6.236746484375000000e+04
-6.236692968750000000e+04
-6.236925781250000000e+04
-6.236787890625000000e+04
-6.236941406250000000e+04
-6.237182812500000000e+04
-6.237073828125000000e+04
-6.236551171875000000e+04
-6.237222265625000000e+04
-6.236980468750000000e+04
-6.236710156250000000e+04
-6.236737109375000000e+04
-6.236815234375000000e+04
-6.236819921875000000e+04
-6.236268359375000000e+04
-6.237070703125000000e+04
-6.236876171875000000e+04
-6.244278906250000000e+04
-6.237551171875000000e+04
-6.237347265625000000e+04
-6.237617968750000000e+04
-6.237562500000000000e+04
-6.237277343750000000e+04
-6.237280859375000000e+04
-6.237336328125000000e+04
-6.236635156250000000e+04
-6.237061718750000000e+04
-6.237340234375000000e+04
-6.237417578125000000e+04
-6.237250000000000000e+04
-6.236903515625000000e+04
-6.236737890625000000e+04
-6.236980859375000000e+04
-6.237379296875000000e+04
-6.237078906250000000e+04
-6.237370703125000000e+04
-6.237345312500000000e+04
-6.237256640625000000e+04
-6.237489062500000000e+04
-6.237271484375000000e+04
-6.237991796875000000e+04
-6.240499218750000000e+04
-6.238992968750000000e+04
-6.238355859375000000e+04
-6.237567968750000000e+04
-6.237075000000000000e+04
-6.236028515625000000e+04
-6.235689843750000000e+04
-6.236137890625000000e+04
-6.236558984375000000e+04
-6.235801562500000000e+04
-6.235520312500000000e+04
-6.236091406250000000e+04
-6.235662500000000000e+04
-6.235417968750000000e+04
-6.235171875000000000e+04
-6.235691406250000000e+04
-6.236428906250000000e+04
-6.236807421875000000e+04
-6.235501171875000000e+04
-6.235377343750000000e+04
-6.235530468750000000e+04
-6.234684765625000000e+04
-6.234461328125000000e+04
-6.244278906250000000e+04
-6.240315625000000000e+04
-6.240128906250000000e+04
-6.237899218750000000e+04
-6.236093359375000000e+04
-6.235400390625000000e+04
-6.235511718750000000e+04
-6.235757421875000000e+04
-6.236007031250000000e+04
-6.235708203125000000e+04
-6.235565625000000000e+04
-6.235823046875000000e+04
-6.236283593750000000e+04
-6.235853515625000000e+04
-6.236442187500000000e+04
-6.236720703125000000e+04
-6.236126953125000000e+04
-6.235760546875000000e+04
-6.235947656250000000e+04
-6.240303906250000000e+04
-6.239763281250000000e+04
-6.238760937500000000e+04
-6.237790234375000000e+04
-6.238671093750000000e+04
-6.238353125000000000e+04
-6.238125390625000000e+04
-6.238185546875000000e+04
-6.237719140625000000e+04
-6.237914453125000000e+04
-6.237842187500000000e+04
-6.237989843750000000e+04
-6.237837890625000000e+04
-6.237558203125000000e+04
-6.237480468750000000e+04
-6.237748828125000000e+04
-6.237693359375000000e+04
-6.240787109375000000e+04
-6.238855078125000000e+04
-6.238666015625000000e+04
-6.238029687500000000e+04
-6.237901562500000000e+04
-6.238613281250000000e+04
-6.238331640625000000e+04
-6.237958593750000000e+04
-6.237589843750000000e+04
-6.237950390625000000e+04
-6.238125781250000000e+04
-6.237689843750000000e+04
-6.237943750000000000e+04
-6.238349609375000000e+04
-6.238396875000000000e+04
-6.237833984375000000e+04
-6.238003515625000000e+04
-6.237996484375000000e+04
-6.238291406250000000e+04
-6.238090234375000000e+04
-6.244216406250000000e+04
-6.237816796875000000e+04
-6.237651171875000000e+04
-6.237345703125000000e+04
-6.237043750000000000e+04
-6.236754687500000000e+04
-6.236566796875000000e+04
-6.236595703125000000e+04
-6.236400390625000000e+04
-6.236680468750000000e+04
-6.236275000000000000e+04
-6.236241015625000000e+04
-6.236267578125000000e+04
-6.236796093750000000e+04
-6.235988281250000000e+04
-6.236056250000000000e+04
-6.236602734375000000e+04
-6.236802343750000000e+04
-6.236685937500000000e+04
-6.236575781250000000e+04
-6.236393359375000000e+04
-6.235831250000000000e+04
-6.235712109375000000e+04
-6.235626171875000000e+04
-6.236288671875000000e+04
-6.236692968750000000e+04
-6.236467187500000000e+04
-6.244216406250000000e+04
-6.240285937500000000e+04
-6.239917968750000000e+04
-6.237921875000000000e+04
-6.237205468750000000e+04
-6.237544531250000000e+04
-6.236878906250000000e+04
-6.237050000000000000e+04
-6.236839453125000000e+04
-6.236632031250000000e+04
-6.236548437500000000e+04
-6.236642578125000000e+04
-6.236928906250000000e+04
-6.236648046875000000e+04
-6.236566796875000000e+04
-6.237397656250000000e+04
-6.236957031250000000e+04
-6.237499218750000000e+04
-6.236737500000000000e+04
-6.237057421875000000e+04
-6.237345703125000000e+04
-6.236779296875000000e+04
-6.237183593750000000e+04
-6.236766015625000000e+04
-6.237037109375000000e+04
-6.236710156250000000e+04
-6.239038671875000000e+04
-6.238085546875000000e+04
-6.236504687500000000e+04
-6.235355468750000000e+04
-6.235989453125000000e+04
-6.236193750000000000e+04
-6.236001171875000000e+04
-6.235796093750000000e+04
-6.234898437500000000e+04
-6.235391796875000000e+04
-6.235652343750000000e+04
-6.235570312500000000e+04
-6.235537500000000000e+04
-6.235096875000000000e+04
-6.235521484375000000e+04
-6.235453125000000000e+04
-6.235424218750000000e+04
-6.235326562500000000e+04
-6.236079687500000000e+04
-6.235572265625000000e+04
-6.235757812500000000e+04
-6.234989453125000000e+04
-6.235076953125000000e+04
-6.235444921875000000e+04
-6.235221875000000000e+04
-6.235367578125000000e+04
-6.240646093750000000e+04
-6.237712500000000000e+04
-6.236314453125000000e+04
-6.235893750000000000e+04
-6.236258984375000000e+04
-6.235759375000000000e+04
-6.236198828125000000e+04
-6.236053906250000000e+04
-6.235726562500000000e+04
-6.235872265625000000e+04
-6.235509375000000000e+04
-6.235316796875000000e+04
-6.236022265625000000e+04
-6.235955859375000000e+04
-6.244164453125000000e+04
-6.241064843750000000e+04
-6.240752734375000000e+04
-6.239851953125000000e+04
-6.239174609375000000e+04
-6.238561718750000000e+04
-6.238167968750000000e+04
-6.238021875000000000e+04
-6.237682031250000000e+04
-6.237942968750000000e+04
-6.237608984375000000e+04
-6.237814843750000000e+04
-6.238194531250000000e+04
-6.238074609375000000e+04
-6.238092187500000000e+04
-6.237794531250000000e+04
-6.237816796875000000e+04
-6.237833593750000000e+04
-6.237577734375000000e+04
-6.237711328125000000e+04
-6.237712109375000000e+04
-6.237659375000000000e+04
-6.237697265625000000e+04
-6.238089843750000000e+04
-6.237978125000000000e+04
-6.237911718750000000e+04
-6.244164453125000000e+04
-6.240914062500000000e+04
-6.239466015625000000e+04
-6.239238671875000000e+04
-6.238451562500000000e+04
-6.238328906250000000e+04
-6.238352343750000000e+04
-6.238432421875000000e+04
-6.238270312500000000e+04
-6.238149218750000000e+04
-6.238061718750000000e+04
-6.238439062500000000e+04
-6.237646875000000000e+04
-6.238241796875000000e+04
-6.238375000000000000e+04
-6.238329296875000000e+04
-6.238164843750000000e+04
-6.237722265625000000e+04
-6.238038671875000000e+04
-6.238392968750000000e+04
-6.237647656250000000e+04
-6.237742187500000000e+04
-6.238117578125000000e+04
-6.237994921875000000e+04
-6.237922265625000000e+04
-6.237567578125000000e+04
-6.244164453125000000e+04
-6.240494921875000000e+04
-6.238297265625000000e+04
-6.237277343750000000e+04
-6.237110937500000000e+04
-6.236982421875000000e+04
-6.237163671875000000e+04
-6.236956640625000000e+04
-6.237250000000000000e+04
-6.236494140625000000e+04
-6.236625000000000000e+04
-6.236662500000000000e+04
-6.236709765625000000e+04
-6.235696484375000000e+04
-6.236002343750000000e+04
-6.236210156250000000e+04
-6.235646484375000000e+04
-6.235697656250000000e+04
-6.236261328125000000e+04
-6.236194921875000000e+04
-6.235630078125000000e+04
-6.235896093750000000e+04
-6.235495312500000000e+04
-6.244164453125000000e+04
-6.240694140625000000e+04
-6.239411328125000000e+04
-6.238129296875000000e+04
-6.236878906250000000e+04
-6.236628906250000000e+04
-6.237079296875000000e+04
-6.237067578125000000e+04
-6.237465625000000000e+04
-6.236818750000000000e+04
-6.236617968750000000e+04
-6.236631640625000000e+04
-6.236440234375000000e+04
-6.236610156250000000e+04
-6.236949218750000000e+04
-6.236710546875000000e+04
-6.236635156250000000e+04
-6.236766406250000000e+04
-6.236505859375000000e+04
-6.236830859375000000e+04
-6.236428125000000000e+04
-6.236383203125000000e+04
-6.236987890625000000e+04
-6.237303906250000000e+04
-6.240135546875000000e+04
-6.236579687500000000e+04
-6.235478125000000000e+04
-6.236110156250000000e+04
-6.236020312500000000e+04
-6.235644531250000000e+04
-6.235102734375000000e+04
-6.236182421875000000e+04
-6.236219140625000000e+04
-6.236026562500000000e+04
-6.235498046875000000e+04
-6.235471093750000000e+04
-6.235791406250000000e+04
-6.235967578125000000e+04
-6.235737109375000000e+04
-6.235394921875000000e+04
-6.235137890625000000e+04
-6.235666015625000000e+04
-6.235858593750000000e+04
-6.235530078125000000e+04
-6.235150390625000000e+04
-6.234640234375000000e+04
-6.234546093750000000e+04
-6.244164453125000000e+04
-6.240007421875000000e+04
-6.238763281250000000e+04
-6.236326562500000000e+04
-6.235807031250000000e+04
-6.236385546875000000e+04
-6.236204296875000000e+04
-6.235954296875000000e+04
-6.236560156250000000e+04
-6.235730468750000000e+04
-6.236672656250000000e+04
-6.236035546875000000e+04
-6.236657031250000000e+04
-6.236387109375000000e+04
-6.235524218750000000e+04
-6.235566015625000000e+04
-6.235685156250000000e+04
-6.235746093750000000e+04
-6.235734765625000000e+04
-6.235860546875000000e+04
-6.236289453125000000e+04
-6.236139843750000000e+04
-6.236684375000000000e+04
-6.236051953125000000e+04
-6.236164453125000000e+04
-6.235678906250000000e+04
-6.241148046875000000e+04
-6.239682812500000000e+04
-6.238728125000000000e+04
-6.238085937500000000e+04
-6.237775000000000000e+04
-6.237589453125000000e+04
-6.237303515625000000e+04
-6.237302734375000000e+04
-6.238021484375000000e+04
-6.237896093750000000e+04
-6.238135156250000000e+04
-6.237748437500000000e+04
-6.237730078125000000e+04
-6.237670703125000000e+04
-6.237351953125000000e+04
-6.238002734375000000e+04
-6.238182031250000000e+04
-6.237727343750000000e+04
-6.237557812500000000e+04
-6.237955468750000000e+04
-6.244222656250000000e+04
-6.241041796875000000e+04
-6.240710937500000000e+04
-6.240361718750000000e+04
-6.239837500000000000e+04
-6.239001953125000000e+04
-6.238575781250000000e+04
-6.238590234375000000e+04
-6.238383593750000000e+04
-6.238353906250000000e+04
-6.238201562500000000e+04
-6.238480078125000000e+04
-6.238314843750000000e+04
-6.237966796875000000e+04
-6.238227734375000000e+04
-6.237816015625000000e+04
-6.238423437500000000e+04
-6.237857421875000000e+04
-6.238020703125000000e+04
-6.237933593750000000e+04
-6.238332031250000000e+04
-6.238220703125000000e+04
-6.238286718750000000e+04
-6.238307812500000000e+04
-6.238007031250000000e+04
-6.238425390625000000e+04
-6.237873046875000000e+04
-6.244222656250000000e+04
-6.239610937500000000e+04
-6.238490234375000000e+04
-6.236715234375000000e+04
-6.236632812500000000e+04
-6.236633984375000000e+04
-6.236886718750000000e+04
-6.236891015625000000e+04
-6.236124609375000000e+04
-6.236254687500000000e+04
-6.236635937500000000e+04
-6.236760156250000000e+04
-6.236873437500000000e+04
-6.236807421875000000e+04
-6.237148046875000000e+04
-6.237189453125000000e+04
-6.235657421875000000e+04
-6.236177343750000000e+04
-6.244222656250000000e+04
-6.240941406250000000e+04
-6.238577734375000000e+04
-6.237214453125000000e+04
-6.237221875000000000e+04
-6.237649609375000000e+04
-6.237318359375000000e+04
-6.237110546875000000e+04
-6.237135937500000000e+04
-6.236071093750000000e+04
-6.237071484375000000e+04
-6.236287109375000000e+04
-6.236050000000000000e+04
-6.236362109375000000e+04
-6.236455859375000000e+04
-6.236599218750000000e+04
-6.237139453125000000e+04
-6.236271093750000000e+04
-6.236972656250000000e+04
-6.239880859375000000e+04
-6.237581250000000000e+04
-6.236655468750000000e+04
-6.235564453125000000e+04
-6.236301562500000000e+04
-6.235244140625000000e+04
-6.235267187500000000e+04
-6.235358593750000000e+04
-6.235333984375000000e+04
-6.235350781250000000e+04
-6.235496875000000000e+04
-6.234886718750000000e+04
-6.235322656250000000e+04
-6.236003515625000000e+04
-6.235316796875000000e+04
-6.235114453125000000e+04
-6.235174609375000000e+04
-6.235433984375000000e+04
-6.240252343750000000e+04
-6.237418750000000000e+04
-6.236914843750000000e+04
-6.236893359375000000e+04
-6.236829687500000000e+04
-6.236376953125000000e+04
-6.236268750000000000e+04
-6.235858984375000000e+04
-6.236141406250000000e+04
-6.236320312500000000e+04
-6.236582421875000000e+04
-6.236228125000000000e+04
-6.236229296875000000e+04
-6.235879296875000000e+04
-6.235541406250000000e+04
-6.235782812500000000e+04
-6.235494140625000000e+04
-6.235643750000000000e+04
-6.235345312500000000e+04
-6.241305078125000000e+04
-6.239740625000000000e+04
-6.237507812500000000e+04
-6.237980078125000000e+04
-6.238134765625000000e+04
-6.238277343750000000e+04
-6.237970703125000000e+04
-6.238166796875000000e+04
-6.238692578125000000e+04
-6.238709375000000000e+04
-6.237827343750000000e+04
-6.238208984375000000e+04
-6.237670703125000000e+04
-6.238009765625000000e+04
-6.237819531250000000e+04
-6.238142578125000000e+04
-6.240799218750000000e+04
-6.239548828125000000e+04
-6.239510546875000000e+04
-6.238777734375000000e+04
-6.239049609375000000e+04
-6.238789453125000000e+04
-6.238525390625000000e+04
-6.237907031250000000e+04
-6.237808984375000000e+04
-6.238424218750000000e+04
-6.238007421875000000e+04
-6.237811718750000000e+04
-6.238207031250000000e+04
-6.237873828125000000e+04
-6.238028125000000000e+04
-6.238657421875000000e+04
-6.238159765625000000e+04
-6.238195312500000000e+04
-6.238251562500000000e+04
-6.238398437500000000e+04
-6.238167968750000000e+04
-6.237944140625000000e+04
-6.238193359375000000e+04
-6.237957421875000000e+04
-6.237852734375000000e+04
-6.237603515625000000e+04
-6.238154296875000000e+04
-6.240826171875000000e+04
-6.240171484375000000e+04
-6.239712109375000000e+04
-6.238512890625000000e+04
-6.236839453125000000e+04
-6.236982421875000000e+04
-6.236515234375000000e+04
-6.236636718750000000e+04
-6.236807421875000000e+04
-6.236946875000000000e+04
-6.237141796875000000e+04
-6.237017187500000000e+04
-6.236901171875000000e+04
-6.236779687500000000e+04
-6.236076562500000000e+04
-6.236581250000000000e+04
-6.236079687500000000e+04
-6.236669921875000000e+04
-6.236046875000000000e+04
-6.236855468750000000e+04
-6.236667968750000000e+04
-6.236542968750000000e+04
-6.236397265625000000e+04
-6.236216406250000000e+04
-6.239667968750000000e+04
-6.239314062500000000e+04
-6.237839843750000000e+04
-6.237215625000000000e+04
-6.237501562500000000e+04
-6.237330078125000000e+04
-6.236890234375000000e+04
-6.237130859375000000e+04
-6.236987500000000000e+04
-6.237318750000000000e+04
-6.237233984375000000e+04
-6.237250000000000000e+04
-6.237020312500000000e+04
-6.236669140625000000e+04
-6.237214843750000000e+04
-6.237092578125000000e+04
-6.236724218750000000e+04
-6.237221484375000000e+04
-6.237174218750000000e+04
-6.237287500000000000e+04
-6.236611718750000000e+04
-6.237227734375000000e+04
-6.244375000000000000e+04
-6.237927734375000000e+04
-6.235696093750000000e+04
-6.235794921875000000e+04
-6.236185156250000000e+04
-6.236180078125000000e+04
-6.235428515625000000e+04
-6.235928906250000000e+04
-6.235642578125000000e+04
-6.235469140625000000e+04
-6.235301562500000000e+04
-6.235015234375000000e+04
-6.235217968750000000e+04
-6.235038281250000000e+04
-6.234947265625000000e+04
-6.234991796875000000e+04
-6.235031640625000000e+04
-6.235819140625000000e+04
-6.235556250000000000e+04
-6.235734375000000000e+04
-6.234382421875000000e+04
-6.235043359375000000e+04
-6.235264453125000000e+04
-6.235342968750000000e+04
-6.244375000000000000e+04
-6.240241406250000000e+04
-6.238424609375000000e+04
-6.236201562500000000e+04
-6.235899218750000000e+04
-6.236459375000000000e+04
-6.236670312500000000e+04
-6.236290234375000000e+04
-6.236669140625000000e+04
-6.235663281250000000e+04
-6.235798437500000000e+04
-6.236684375000000000e+04
-6.236514062500000000e+04
-6.235518750000000000e+04
-6.235223437500000000e+04
-6.235568750000000000e+04
-6.235418750000000000e+04
-6.236168359375000000e+04
-6.244065234375000000e+04
-6.240921484375000000e+04
-6.240578906250000000e+04
-6.238273046875000000e+04
-6.237596093750000000e+04
-6.238095703125000000e+04
-6.238026171875000000e+04
-6.237666015625000000e+04
-6.238096875000000000e+04
-6.237964843750000000e+04
-6.237447656250000000e+04
-6.238180468750000000e+04
-6.237958984375000000e+04
-6.237614843750000000e+04
-6.237101953125000000e+04
-6.237628515625000000e+04
-6.237448828125000000e+04
-6.237734765625000000e+04
-6.237991406250000000e+04
-6.237038671875000000e+04
-6.237361328125000000e+04
-6.239911718750000000e+04
-6.239279687500000000e+04
-6.238731640625000000e+04
-6.238692968750000000e+04
-6.238639062500000000e+04
-6.238606640625000000e+04
-6.238040625000000000e+04
-6.238300781250000000e+04
-6.238283984375000000e+04
-6.238691796875000000e+04
-6.238428125000000000e+04
-6.238230078125000000e+04
-6.238464062500000000e+04
-6.238279687500000000e+04
-6.238204296875000000e+04
-6.238262109375000000e+04
-6.237831640625000000e+04
-6.238339453125000000e+04
-6.238100000000000000e+04
-6.238271484375000000e+04
-6.244065234375000000e+04
-6.238765234375000000e+04
-6.237870703125000000e+04
-6.237000000000000000e+04
-6.237147656250000000e+04
-6.236091015625000000e+04
-6.236739062500000000e+04
-6.236553515625000000e+04
-6.236609765625000000e+04
-6.236394140625000000e+04
-6.236291406250000000e+04
-6.236379687500000000e+04
-6.236202734375000000e+04
-6.235709375000000000e+04
-6.236387890625000000e+04
-6.236591796875000000e+04
-6.236536328125000000e+04
-6.236674609375000000e+04
-6.237143359375000000e+04
-6.240516406250000000e+04
-6.237131250000000000e+04
-6.237833984375000000e+04
-6.237842187500000000e+04
-6.237053125000000000e+04
-6.237348828125000000e+04
-6.237003906250000000e+04
-6.236745312500000000e+04
-6.237157812500000000e+04
-6.237259375000000000e+04
-6.236207421875000000e+04
-6.236557421875000000e+04
-6.236673437500000000e+04
-6.236916015625000000e+04
-6.237019531250000000e+04
-6.236728906250000000e+04
-6.236520703125000000e+04
-6.236955078125000000e+04
-6.237258984375000000e+04
-6.236737500000000000e+04
-6.236400390625000000e+04
-6.239669140625000000e+04
-6.238971875000000000e+04
-6.236202734375000000e+04
-6.236164843750000000e+04
-6.235883984375000000e+04
-6.235975781250000000e+04
-6.236020312500000000e+04
-6.236317187500000000e+04
-6.235795312500000000e+04
-6.235679687500000000e+04
-6.235234765625000000e+04
-6.235389453125000000e+04
-6.235108984375000000e+04
-6.235170703125000000e+04
-6.235244140625000000e+04
-6.235647265625000000e+04
-6.235639843750000000e+04
-6.235444140625000000e+04
-6.235472265625000000e+04
-6.235415234375000000e+04
-6.235248437500000000e+04
-6.235016406250000000e+04
-6.235164453125000000e+04
-6.235623828125000000e+04
-6.235433593750000000e+04
-6.235438281250000000e+04
-6.244065234375000000e+04
-6.240261328125000000e+04
-6.239785156250000000e+04
-6.236213281250000000e+04
-6.236419921875000000e+04
-6.236309765625000000e+04
-6.236447265625000000e+04
-6.236067968750000000e+04
-6.236291406250000000e+04
-6.235920312500000000e+04
-6.236220703125000000e+04
-6.236268750000000000e+04
-6.236063281250000000e+04
-6.235430078125000000e+04
-6.236403515625000000e+04
-6.235467578125000000e+04
-6.236149218750000000e+04
-6.235971875000000000e+04
-6.236104687500000000e+04
-6.235765234375000000e+04
-6.235250000000000000e+04
-6.235260937500000000e+04
-6.234741015625000000e+04
-6.235573828125000000e+04
-6.235548437500000000e+04
-6.244273046875000000e+04
-6.241159375000000000e+04
-6.240720312500000000e+04
-6.239509375000000000e+04
-6.239086718750000000e+04
-6.238446875000000000e+04
-6.238403515625000000e+04
-6.238176562500000000e+04
-6.237758203125000000e+04
-6.237516796875000000e+04
-6.238033984375000000e+04
-6.237785156250000000e+04
-6.237529687500000000e+04
-6.237468359375000000e+04
-6.238016796875000000e+04
-6.237916015625000000e+04
-6.237717187500000000e+04
-6.237744531250000000e+04
-6.237945703125000000e+04
-6.237720312500000000e+04
-6.237795703125000000e+04
-6.237527734375000000e+04
-6.237527734375000000e+04
-6.237885546875000000e+04
-6.244273046875000000e+04
-6.240190234375000000e+04
-6.238903515625000000e+04
-6.238584375000000000e+04
-6.238708984375000000e+04
-6.238605468750000000e+04
-6.238776953125000000e+04
-6.238759375000000000e+04
-6.238712500000000000e+04
-6.238837890625000000e+04
-6.238344531250000000e+04
-6.237940234375000000e+04
-6.238287500000000000e+04
-6.238221484375000000e+04
-6.237962890625000000e+04
-6.238480859375000000e+04
-6.238321484375000000e+04
-6.237894921875000000e+04
-6.237921093750000000e+04
-6.237721875000000000e+04
-6.237914062500000000e+04
-6.238119921875000000e+04
-6.237945703125000000e+04
-6.238286718750000000e+04
-6.237832812500000000e+04
-6.237805859375000000e+04
-6.237672265625000000e+04
-6.240615625000000000e+04
-6.240319531250000000e+04
-6.238426562500000000e+04
-6.237255859375000000e+04
-6.236498437500000000e+04
-6.236878125000000000e+04
-6.236137109375000000e+04
-6.236384375000000000e+04
-6.235542968750000000e+04
-6.236132812500000000e+04
-6.236487500000000000e+04
-6.236328515625000000e+04
-6.236574609375000000e+04
-6.236417187500000000e+04
-6.236488281250000000e+04
-6.236625781250000000e+04
-6.236843359375000000e+04
-6.236486718750000000e+04
-6.236233593750000000e+04
-6.236450781250000000e+04
-6.236245312500000000e+04
-6.236093359375000000e+04
-6.236513281250000000e+04
-6.235669531250000000e+04
-6.235742968750000000e+04
-6.236000781250000000e+04
-6.236276171875000000e+04
-6.236044140625000000e+04
-6.240355859375000000e+04
-6.237488281250000000e+04
-6.237470312500000000e+04
-6.237076562500000000e+04
-6.237216015625000000e+04
-6.236906640625000000e+04
-6.236891406250000000e+04
-6.236518359375000000e+04
-6.236679296875000000e+04
-6.236577343750000000e+04
-6.236659765625000000e+04
-6.237164062500000000e+04
-6.236888671875000000e+04
-6.236823828125000000e+04
-6.236483203125000000e+04
-6.236432812500000000e+04
-6.236742578125000000e+04
-6.239629296875000000e+04
-6.238922656250000000e+04
-6.238281640625000000e+04
-6.237194921875000000e+04
-6.236704296875000000e+04
-6.235497265625000000e+04
-6.235652343750000000e+04
-6.235687890625000000e+04
-6.236246093750000000e+04
-6.235682421875000000e+04
-6.235967578125000000e+04
-6.234792187500000000e+04
-6.234693750000000000e+04
-6.235251953125000000e+04
-6.235605468750000000e+04
-6.235910156250000000e+04
-6.235032812500000000e+04
-6.235010156250000000e+04
-6.235397656250000000e+04
-6.235047656250000000e+04
-6.234984765625000000e+04
-6.235431250000000000e+04
-6.235489843750000000e+04
-6.235060156250000000e+04
-6.235417968750000000e+04
-6.244273046875000000e+04
-6.238711718750000000e+04
-6.236355468750000000e+04
-6.235755859375000000e+04
-6.235966796875000000e+04
-6.235903125000000000e+04
-6.236557421875000000e+04
-6.236929687500000000e+04
-6.236013671875000000e+04
-6.236176171875000000e+04
-6.236412500000000000e+04
-6.236214843750000000e+04
-6.236197656250000000e+04
-6.235433984375000000e+04
-6.234953125000000000e+04
-6.235253125000000000e+04
-6.235765625000000000e+04
-6.235525000000000000e+04
-6.235493750000000000e+04
-6.240893750000000000e+04
-6.240815625000000000e+04
-6.238670312500000000e+04
-6.237951171875000000e+04
-6.238304296875000000e+04
-6.237751953125000000e+04
-6.237593750000000000e+04
-6.237938281250000000e+04
-6.237519921875000000e+04
-6.237783984375000000e+04
-6.237926562500000000e+04
-6.237837500000000000e+04
-6.237908203125000000e+04
-6.237484765625000000e+04
-6.238546484375000000e+04
-6.237993359375000000e+04
-6.237946484375000000e+04
-6.237298437500000000e+04
-6.237813281250000000e+04
-6.237739453125000000e+04
-6.241030468750000000e+04
-6.238499609375000000e+04
-6.238787890625000000e+04
-6.238742968750000000e+04
-6.238625000000000000e+04
-6.238293359375000000e+04
-6.238322656250000000e+04
-6.237969531250000000e+04
-6.237676953125000000e+04
-6.237620312500000000e+04
-6.238214453125000000e+04
-6.237526171875000000e+04
-6.237919531250000000e+04
-6.238237890625000000e+04
-6.237895703125000000e+04
-6.238021093750000000e+04
-6.238083203125000000e+04
-6.238004296875000000e+04
-6.237508984375000000e+04
-6.237413281250000000e+04
-6.237386718750000000e+04
-6.237482031250000000e+04
-6.238278515625000000e+04
-6.238534765625000000e+04
-6.238333984375000000e+04
-6.237883203125000000e+04
-6.238066015625000000e+04
-6.238017578125000000e+04
-6.240698046875000000e+04
-6.238742187500000000e+04
-6.237409765625000000e+04
-6.237101171875000000e+04
-6.237249609375000000e+04
-6.236996875000000000e+04
-6.237058593750000000e+04
-6.236930078125000000e+04
-6.236788671875000000e+04
-6.237061328125000000e+04
-6.236561718750000000e+04
-6.236908984375000000e+04
-6.236567578125000000e+04
-6.236767578125000000e+04
-6.236748828125000000e+04
-6.236680468750000000e+04
-6.235929687500000000e+04
-6.236218750000000000e+04
-6.236506250000000000e+04
-6.236489453125000000e+04
-6.236389453125000000e+04
-6.236301953125000000e+04
-6.244137500000000000e+04
-6.240512890625000000e+04
-6.238989843750000000e+04
-6.237444921875000000e+04
-6.237482031250000000e+04
-6.237466406250000000e+04
-6.237364453125000000e+04
-6.236992578125000000e+04
-6.237142578125000000e+04
-6.237554296875000000e+04
-6.236733203125000000e+04
-6.237126562500000000e+04
-6.236905468750000000e+04
-6.236531640625000000e+04
-6.236757031250000000e+04
-6.236533203125000000e+04
-6.236996093750000000e+04
-6.236669140625000000e+04
-6.244137500000000000e+04
-6.240293359375000000e+04
-6.238958203125000000e+04
-6.237294140625000000e+04
-6.236487500000000000e+04
-6.236216406250000000e+04
-6.236128906250000000e+04
-6.235823828125000000e+04
-6.235614453125000000e+04
-6.235256640625000000e+04
-6.235541796875000000e+04
-6.235447265625000000e+04
-6.235703515625000000e+04
-6.235535937500000000e+04
-6.235728906250000000e+04
-6.234602343750000000e+04
-6.235006640625000000e+04
-6.235335937500000000e+04
-6.235511328125000000e+04
-6.235712500000000000e+04
-6.235290625000000000e+04
-6.235215234375000000e+04
-6.235447656250000000e+04
-6.244137500000000000e+04
-6.240017968750000000e+04
-6.238385156250000000e+04
-6.236851953125000000e+04
-6.236171484375000000e+04
-6.235472656250000000e+04
-6.235701953125000000e+04
-6.236326562500000000e+04
-6.236083593750000000e+04
-6.236159375000000000e+04
-6.236275781250000000e+04
-6.236326562500000000e+04
-6.235855468750000000e+04
-6.235528125000000000e+04
-6.235082031250000000e+04
-6.235187500000000000e+04
-6.235385937500000000e+04
-6.235603515625000000e+04
-6.235481250000000000e+04
-6.235535546875000000e+04
-6.235826171875000000e+04
-6.240878515625000000e+04
-6.240783984375000000e+04
-6.240242187500000000e+04
-6.239578125000000000e+04
-6.238440625000000000e+04
-6.237517968750000000e+04
-6.238001171875000000e+04
-6.238110156250000000e+04
-6.237600000000000000e+04
-6.237812500000000000e+04
-6.237464062500000000e+04
-6.237841015625000000e+04
-6.237742578125000000e+04
-6.237277343750000000e+04
-6.237580859375000000e+04
-6.237242578125000000e+04
-6.237814062500000000e+04
-6.237705859375000000e+04
-6.238029687500000000e+04
-6.237119921875000000e+04
-6.237195703125000000e+04
-6.237244921875000000e+04
-6.237099218750000000e+04
-6.237336328125000000e+04
-6.237543750000000000e+04
-6.237557421875000000e+04
-6.237360156250000000e+04
-6.237728906250000000e+04
-6.237758593750000000e+04
-6.238066015625000000e+04
-6.237860156250000000e+04
-6.237787500000000000e+04
-6.237844531250000000e+04
-6.238000000000000000e+04
-6.238538671875000000e+04
-6.241081640625000000e+04
-6.240228906250000000e+04
-6.239375000000000000e+04
-6.237781640625000000e+04
-6.238576562500000000e+04
-6.238544921875000000e+04
-6.238084375000000000e+04
-6.238135156250000000e+04
-6.238303125000000000e+04
-6.237982031250000000e+04
-6.238418750000000000e+04
-6.238514453125000000e+04
-6.238207421875000000e+04
-6.238076562500000000e+04
-6.238229687500000000e+04
-6.238032812500000000e+04
-6.238005468750000000e+04
-6.237941796875000000e+04
-6.244227734375000000e+04
-6.240389843750000000e+04
-6.240158593750000000e+04
-6.238710546875000000e+04
-6.237036718750000000e+04
-6.236985156250000000e+04
-6.236816796875000000e+04
-6.237039843750000000e+04
-6.237279296875000000e+04
-6.237502343750000000e+04
-6.236600390625000000e+04
-6.236835156250000000e+04
-6.237057812500000000e+04
-6.236621484375000000e+04
-6.236835546875000000e+04
-6.236514062500000000e+04
-6.236503515625000000e+04
-6.236346093750000000e+04
-6.236702734375000000e+04
-6.236585546875000000e+04
-6.237107421875000000e+04
-6.237190625000000000e+04
-6.237018750000000000e+04
-6.236685156250000000e+04
-6.236744531250000000e+04
-6.237278125000000000e+04
-6.236363671875000000e+04
-6.244227734375000000e+04
-6.240592578125000000e+04
-6.239511328125000000e+04