1.230575323104858398e+00 1.470535278320312500e+01 -8.969227790832519531e+00 1.470535278320312500e+01 -7.591724395751953125e+01 -9.322283744812011719e+00 -8.969227790832519531e+00 -9.322283744812011719e+00 -6.067136764526367188e+01
-3.057360839843750000e+01 2.249542713165283203e+00 6.659123301506042480e-01 2.249542713165283203e+00 -2.441768646240234375e+00 -2.367374801635742188e+01 6.659123301506042480e-01 -2.367374801635742188e+01 -1.572023677825927734e+01
-3.822874450683593750e+01 -9.055430412292480469e+00 -1.324631977081298828e+01 -9.055430412292480469e+00 -3.378210449218750000e+01 1.119265675544738770e+00 -1.324631977081298828e+01 1.119265675544738770e+00 -2.295898056030273438e+01
3.990253686904907227e+00 -2.011922836303710938e+01 1.888175010681152344e+01 -2.011922836303710938e+01 2.724624443054199219e+01 -7.753650188446044922e+00 1.888175010681152344e+01 -7.753650188446044922e+00 4.374895095825195312e+01
-8.941112518310546875e+00 2.378008604049682617e+00 2.769855117797851562e+01 2.378008604049682617e+00 -2.221774291992187500e+01 -1.602854537963867188e+01 2.769855117797851562e+01 -1.602854537963867188e+01 -1.022724342346191406e+01
1.048492240905761719e+01 1.150795555114746094e+01 -1.681382369995117188e+01 1.150795555114746094e+01 -4.707889556884765625e+01 -2.411786842346191406e+01 -1.681382369995117188e+01 -2.411786842346191406e+01 -3.431464004516601562e+01
-1.897078323364257812e+01 -2.827616930007934570e+00 -1.070390033721923828e+01 -2.827616930007934570e+00 -2.168391036987304688e+01 9.437640190124511719e+00 -1.070390033721923828e+01 9.437640190124511719e+00 3.958250761032104492e+00
-1.276378631591796875e+01 1.038568019866943359e+00 -2.710934877395629883e+00 1.038568019866943359e+00 1.552829933166503906e+01 9.578566551208496094e+00 -2.710934877395629883e+00 9.578566551208496094e+00 -2.228859710693359375e+01
-1.562643647193908691e-01 -1.084517288208007812e+01 8.273922920227050781e+00 -1.084517288208007812e+01 -4.212271881103515625e+01 -7.770297527313232422e+00 8.273922920227050781e+00 -7.770297527313232422e+00 -3.741422653198242188e+01
1.551174831390380859e+01 -1.164923787117004395e+00 4.091768860816955566e-01 -1.164923787117004395e+00 4.059304428100585938e+01 -1.796906852722167969e+01 4.091768860816955566e-01 -1.796906852722167969e+01 2.490373134613037109e+00
1.587090969085693359e+01 -2.904111289978027344e+01 1.983944892883300781e+01 -2.904111289978027344e+01 -7.067014217376708984e+00 7.528533458709716797e+00 1.983944892883300781e+01 7.528533458709716797e+00 -2.322484397888183594e+01
-1.185306644439697266e+01 1.309081363677978516e+01 -4.174602985382080078e+00 1.309081363677978516e+01 -2.164202880859375000e+01 -3.112019538879394531e+00 -4.174602985382080078e+00 -3.112019538879394531e+00 -3.774132156372070312e+01
-5.028316974639892578e+00 1.816766738891601562e+00 1.372930765151977539e+00 1.816766738891601562e+00 -1.914481925964355469e+01 -1.394686698913574219e+01 1.372930765151977539e+00 -1.394686698913574219e+01 1.362752246856689453e+01
-2.096039009094238281e+01 5.883600711822509766e+00 9.898327827453613281e+00 5.883600711822509766e+00 -3.548524093627929688e+01 2.553362131118774414e+00 9.898327827453613281e+00 2.553362131118774414e+00 -2.664734840393066406e+01
-2.700786018371582031e+01 -2.310816001892089844e+01 1.190787601470947266e+01 -2.310816001892089844e+01 -4.342807006835937500e+01 2.074685287475585938e+01 1.190787601470947266e+01 2.074685287475585938e+01 -2.542125511169433594e+01
-2.104954910278320312e+01 1.435659980773925781e+01 7.169956207275390625e+00 1.435659980773925781e+01 1.102763056755065918e+00 1.112272644042968750e+01 7.169956207275390625e+00 1.112272644042968750e+01 8.764464378356933594e+00
-1.133260822296142578e+01 -4.686658382415771484e+00 5.164813518524169922e+00 -4.686658382415771484e+00 -2.949747467041015625e+01 -2.968581199645996094e+00 5.164813518524169922e+00 -2.968581199645996094e+00 -9.578438758850097656e+00
-1.563910007476806641e+00 1.415879249572753906e+01 2.144562339782714844e+01 1.415879249572753906e+01 7.587113380432128906e+00 -1.258281135559082031e+01 2.144562339782714844e+01 -1.258281135559082031e+01 -5.816848278045654297e-01
-4.531618499755859375e+01 1.032244110107421875e+01 -3.875933170318603516e+00 1.032244110107421875e+01 -1.477203464508056641e+01 -3.462571144104003906e+00 -3.875933170318603516e+00 -3.462571144104003906e+00 -1.053626298904418945e+00
-4.276908874511718750e+01 7.632512092590332031e+00 5.125599503517150879e-01 7.632512092590332031e+00 -2.688279533386230469e+01 3.872675657272338867e+00 5.125599503517150879e-01 3.872675657272338867e+00 -3.642953872680664062e+01
-8.405697822570800781e+00 1.322556114196777344e+01 -9.214479446411132812e+00 1.322556114196777344e+01 -1.854382514953613281e+01 -2.942250728607177734e+00 -9.214479446411132812e+00 -2.942250728607177734e+00 -2.552390575408935547e+00
1.275878334045410156e+01 -9.861567497253417969e+00 -7.269407272338867188e+00 -9.861567497253417969e+00 -1.671543693542480469e+01 -6.724893450736999512e-01 -7.269407272338867188e+00 -6.724893450736999512e-01 -4.908544158935546875e+01
2.447810935974121094e+01 1.709857177734375000e+01 -7.565714359283447266e+00 1.709857177734375000e+01 2.229337120056152344e+01 -1.227121448516845703e+01 -7.565714359283447266e+00 -1.227121448516845703e+01 3.821327209472656250e+01
-1.679974555969238281e+01 5.075836777687072754e-01 -7.984973907470703125e+00 5.075836777687072754e-01 -1.832592773437500000e+01 1.023726749420166016e+01 -7.984973907470703125e+00 1.023726749420166016e+01 -2.379318618774414062e+01
3.063183069229125977e+00 2.931944370269775391e+00 -7.345257759094238281e+00 2.931944370269775391e+00 -9.884604811668395996e-01 1.656401824951171875e+01 -7.345257759094238281e+00 1.656401824951171875e+01 -1.596367073059082031e+01
-5.351963043212890625e+00 1.172344398498535156e+01 -6.089824199676513672e+00 1.172344398498535156e+01 7.253895759582519531e+00 1.479769897460937500e+01 -6.089824199676513672e+00 1.479769897460937500e+01 1.440017127990722656e+01
2.097549629211425781e+01 8.545156478881835938e+00 -6.761743068695068359e+00 8.545156478881835938e+00 1.407907485961914062e+01 -1.551924228668212891e+01 -6.761743068695068359e+00 -1.551924228668212891e+01 2.711491584777832031e+00
-2.054785490036010742e+00 -1.837196540832519531e+01 -2.038026618957519531e+01 -1.837196540832519531e+01 3.593826293945312500e+01 3.290507507324218750e+01 -2.038026618957519531e+01 3.290507507324218750e+01 1.963286781311035156e+01
-6.992584705352783203e+00 8.583542823791503906e+00 -1.047822475433349609e+01 8.583542823791503906e+00 -2.264785003662109375e+01 7.597005367279052734e+00 -1.047822475433349609e+01 7.597005367279052734e+00 9.335655212402343750e+00
-3.057667970657348633e+00 -1.610362052917480469e+00 1.698484802246093750e+01 -1.610362052917480469e+00 -2.206102752685546875e+01 1.360665416717529297e+01 1.698484802246093750e+01 1.360665416717529297e+01 -6.796111583709716797e+00
-5.415785312652587891e+00 2.277733325958251953e+00 4.185850918292999268e-02 2.277733325958251953e+00 -5.126224517822265625e+00 3.140004158020019531e+00 4.185850918292999268e-02 3.140004158020019531e+00 -1.599931621551513672e+01
4.633443832397460938e+00 3.437860488891601562e+00 6.851499080657958984e+00 3.437860488891601562e+00 1.206668472290039062e+01 5.465181350708007812e+00 6.851499080657958984e+00 5.465181350708007812e+00 -9.188961029052734375e+00
-1.763689041137695312e+01 1.857395172119140625e+00 1.158308863639831543e+00 1.857395172119140625e+00 -2.905441093444824219e+01 1.799286651611328125e+01 1.158308863639831543e+00 1.799286651611328125e+01 -5.166737747192382812e+01
-2.159150123596191406e+01 -1.200205421447753906e+01 -8.072934150695800781e+00 -1.200205421447753906e+01 -2.237002754211425781e+01 1.107623219490051270e+00 -8.072934150695800781e+00 1.107623219490051270e+00 -1.138242530822753906e+01
-2.347917175292968750e+01 -2.480722236633300781e+01 4.632308959960937500e+00 -2.480722236633300781e+01 -6.545200347900390625e+00 2.790644884109497070e+00 4.632308959960937500e+00 2.790644884109497070e+00 -2.265973281860351562e+01
-3.401428985595703125e+01 1.382289314270019531e+01 3.018993854522705078e+00 1.382289314270019531e+01 3.918037176132202148e+00 9.139729499816894531e+00 3.018993854522705078e+00 9.139729499816894531e+00 1.535354804992675781e+01
-1.686312103271484375e+01 -5.789384365081787109e+00 3.556792974472045898e+00 -5.789384365081787109e+00 -3.402581691741943359e+00 -1.873531723022460938e+01 3.556792974472045898e+00 -1.873531723022460938e+01 -1.822155570983886719e+01
-5.905897903442382812e+01 7.274606704711914062e+00 7.896466732025146484e+00 7.274606704711914062e+00 -2.867496681213378906e+01 -1.264875125885009766e+01 7.896466732025146484e+00 -1.264875125885009766e+01 -1.656846237182617188e+01
-1.105584621429443359e+01 4.150628662109375000e+01 5.884360313415527344e+00 4.150628662109375000e+01 -7.334902286529541016e+00 -1.240793037414550781e+01 5.884360313415527344e+00 -1.240793037414550781e+01 -1.484769153594970703e+01
-2.286920356750488281e+01 -6.101813793182373047e+00 1.997714638710021973e+00 -6.101813793182373047e+00 -3.691188812255859375e+01 -1.636115264892578125e+01 1.997714638710021973e+00 -1.636115264892578125e+01 -7.577107429504394531e+00
1.204899787902832031e+01 8.315202713012695312e+00 -1.409837436676025391e+01 8.315202713012695312e+00 -1.251069545745849609e+01 -1.089658927917480469e+01 -1.409837436676025391e+01 -1.089658927917480469e+01 3.200180053710937500e+01
3.736716079711914062e+01 2.494378471374511719e+01 -1.927446746826171875e+01 2.494378471374511719e+01 2.967927169799804688e+01 9.415646553039550781e+00 -1.927446746826171875e+01 9.415646553039550781e+00 -3.004695320129394531e+01
5.467984199523925781e+00 -8.523218154907226562e+00 -3.041790246963500977e+00 -8.523218154907226562e+00 1.632065582275390625e+01 4.266132354736328125e+00 -3.041790246963500977e+00 4.266132354736328125e+00 -8.112130165100097656e+00
-1.285678958892822266e+01 1.749975585937500000e+01 -1.589922809600830078e+01 1.749975585937500000e+01 -1.743820381164550781e+01 -1.103412246704101562e+01 -1.589922809600830078e+01 -1.103412246704101562e+01 2.003087806701660156e+01
-1.303337097167968750e+01 4.877350330352783203e+00 1.556123971939086914e+00 4.877350330352783203e+00 4.089749813079833984e+00 -1.399856758117675781e+01 1.556123971939086914e+00 -1.399856758117675781e+01 -1.235205554962158203e+01
-1.087353420257568359e+01 -9.909552574157714844e+00 -9.254686355590820312e+00 -9.909552574157714844e+00 -3.736537992954254150e-01 -9.225900650024414062e+00 -9.254686355590820312e+00 -9.225900650024414062e+00 3.295488357543945312e+01
-1.340242767333984375e+01 -1.208385705947875977e+00 6.107660293579101562e+00 -1.208385705947875977e+00 1.597148990631103516e+01 8.019894599914550781e+00 6.107660293579101562e+00 8.019894599914550781e+00 -1.000783920288085938e+01
-1.469857501983642578e+01 7.883229255676269531e+00 8.538912773132324219e+00 7.883229255676269531e+00 -2.229229927062988281e+01 -2.726320981979370117e+00 8.538912773132324219e+00 -2.726320981979370117e+00 1.065240192413330078e+01
-2.250433731079101562e+01 6.796463966369628906e+00 4.167776584625244141e+00 6.796463966369628906e+00 -5.142429828643798828e+00 4.292375087738037109e+00 4.167776584625244141e+00 4.292375087738037109e+00 -2.329800033569335938e+01
-4.262281799316406250e+01 -2.942893505096435547e+00 6.203622341156005859e+00 -2.942893505096435547e+00 1.081575298309326172e+01 1.392864227294921875e+01 6.203622341156005859e+00 1.392864227294921875e+01 -3.196959304809570312e+01
-2.052474403381347656e+01 7.696243762969970703e+00 5.152151107788085938e+00 7.696243762969970703e+00 -6.033497238159179688e+01 1.427565670013427734e+01 5.152151107788085938e+00 1.427565670013427734e+01 -3.056917953491210938e+01
6.906216621398925781e+00 1.586930942535400391e+01 -2.241784811019897461e+00 1.586930942535400391e+01 -2.576511955261230469e+01 -1.999015450477600098e+00 -2.241784811019897461e+00 -1.999015450477600098e+00 -1.801946640014648438e+01
-5.160686874389648438e+01 3.939118146896362305e+00 2.421687602996826172e+00 3.939118146896362305e+00 -4.243247032165527344e+00 8.491648674011230469e+00 2.421687602996826172e+00 8.491648674011230469e+00 -4.345359420776367188e+01
-2.367016601562500000e+01 1.243779087066650391e+01 4.566997528076171875e+00 1.243779087066650391e+01 -8.280328750610351562e+00 5.958706855773925781e+00 4.566997528076171875e+00 5.958706855773925781e+00 -1.783440971374511719e+01
-2.630097579956054688e+01 -2.391800880432128906e+01 -1.606830406188964844e+01 -2.391800880432128906e+01 -3.134535789489746094e+01 2.542477130889892578e+00 -1.606830406188964844e+01 2.542477130889892578e+00 -2.059379005432128906e+01
-4.879775619506835938e+01 -1.025039196014404297e+01 -8.532575964927673340e-01 -1.025039196014404297e+01 -4.226380920410156250e+01 1.504025554656982422e+01 -8.532575964927673340e-01 1.504025554656982422e+01 -3.789573669433593750e+01
-1.903122901916503906e+01 1.085175895690917969e+01 4.358517825603485107e-01 1.085175895690917969e+01 -3.622238922119140625e+01 1.081114864349365234e+01 4.358517825603485107e-01 1.081114864349365234e+01 -1.039839744567871094e+01
-2.017248344421386719e+01 3.159436225891113281e+01 -7.287029743194580078e+00 3.159436225891113281e+01 4.027800083160400391e+00 5.189497470855712891e+00 -7.287029743194580078e+00 5.189497470855712891e+00 -8.332037329673767090e-01
-2.756474876403808594e+01 1.707692909240722656e+01 -5.893771648406982422e+00 1.707692909240722656e+01 -1.489351844787597656e+01 5.203354358673095703e+00 -5.893771648406982422e+00 5.203354358673095703e+00 -8.150476455688476562e+00
-3.283389282226562500e+01 -2.179588699340820312e+01 7.753710269927978516e+00 -2.179588699340820312e+01 -3.339743804931640625e+01 -9.695808410644531250e+00 7.753710269927978516e+00 -9.695808410644531250e+00 -2.224881553649902344e+01
-3.568926620483398438e+01 8.076162934303283691e-01 3.736113607883453369e-01 8.076162934303283691e-01 -5.107881164550781250e+01 7.343139648437500000e+00 3.736113607883453369e-01 7.343139648437500000e+00 -2.253406715393066406e+01
-4.928085327148437500e+01 -1.566637456417083740e-01 -4.439186573028564453e+00 -1.566637456417083740e-01 -1.316348743438720703e+01 -1.600697159767150879e+00 -4.439186573028564453e+00 -1.600697159767150879e+00 -2.199853706359863281e+01
-1.181527805328369141e+01 -6.628773212432861328e-01 -1.887150955200195312e+01 -6.628773212432861328e-01 -3.405482530593872070e+00 -1.242369079589843750e+01 -1.887150955200195312e+01 -1.242369079589843750e+01 -2.035961914062500000e+01
-5.736161804199218750e+01 9.272133827209472656e+00 2.195608139038085938e+01 9.272133827209472656e+00 6.116607785224914551e-01 -3.198400735855102539e+00 2.195608139038085938e+01 -3.198400735855102539e+00 -3.524444961547851562e+01
-5.679496383666992188e+01 3.983878707885742188e+01 1.627514648437500000e+01 3.983878707885742188e+01 -1.698837471008300781e+01 3.003555488586425781e+01 1.627514648437500000e+01 3.003555488586425781e+01 -1.418385219573974609e+01
-1.636529922485351562e+01 -7.332928657531738281e+00 -1.813810157775878906e+01 -7.332928657531738281e+00 -6.755478858947753906e+00 2.448460340499877930e+00 -1.813810157775878906e+01 2.448460340499877930e+00 -1.772907257080078125e+01
-3.577385711669921875e+01 -2.493767929077148438e+01 1.140405464172363281e+01 -2.493767929077148438e+01 -1.666392517089843750e+01 -2.576723098754882812e+01 1.140405464172363281e+01 -2.576723098754882812e+01 -5.264171600341796875e+01
-4.922777938842773438e+01 3.445293605327606201e-01 3.837157249450683594e+00 3.445293605327606201e-01 -5.152091979980468750e+01 1.759025573730468750e+01 3.837157249450683594e+00 1.759025573730468750e+01 -8.007035827636718750e+01
1.386145401000976562e+01 -4.763293266296386719e+00 1.733739852905273438e+01 -4.763293266296386719e+00 -4.019893646240234375e+01 -4.221122264862060547e+00 1.733739852905273438e+01 -4.221122264862060547e+00 -2.436046981811523438e+01
-4.234961032867431641e+00 -1.401052379608154297e+01 -5.357021808624267578e+00 -1.401052379608154297e+01 1.270439624786376953e+01 1.804900169372558594e+01 -5.357021808624267578e+00 1.804900169372558594e+01 -9.597795486450195312e+00
1.230575323104858398e+00 1.470535278320312500e+01 -8.969227790832519531e+00 1.470535278320312500e+01 -7.591724395751953125e+01 -9.322283744812011719e+00 -8.969227790832519531e+00 -9.322283744812011719e+00 -6.067136764526367188e+01
-5.003714752197265625e+01 9.370450973510742188e+00 4.097848236560821533e-01 9.370450973510742188e+00 -4.677511596679687500e+01 -1.033648681640625000e+01 4.097848236560821533e-01 -1.033648681640625000e+01 -2.978983497619628906e+01
-3.279380416870117188e+01 -7.076042652130126953e+00 -1.147693729400634766e+01 -7.076042652130126953e+00 -9.372187614440917969e+00 1.582861709594726562e+01 -1.147693729400634766e+01 1.582861709594726562e+01 -1.931323051452636719e+01
1.599891471862792969e+01 -1.475338935852050781e+01 2.395365476608276367e+00 -1.475338935852050781e+01 -1.559052467346191406e+01 -2.179479598999023438e+01 2.395365476608276367e+00 -2.179479598999023438e+01 -2.149811935424804688e+01
5.555362701416015625e+00 5.322906970977783203e+00 8.549055099487304688e+00 5.322906970977783203e+00 -1.729726600646972656e+01 6.627928733825683594e+00 8.549055099487304688e+00 6.627928733825683594e+00 -5.358242988586425781e+00
3.444661331176757812e+01 -1.698106193542480469e+01 7.060517072677612305e-01 -1.698106193542480469e+01 9.907559394836425781e+00 -2.504372358322143555e+00 7.060517072677612305e-01 -2.504372358322143555e+00 -1.103981971740722656e+01
1.236848735809326172e+01 8.331083297729492188e+00 -8.833638191223144531e+00 8.331083297729492188e+00 -5.588681793212890625e+01 -1.372147178649902344e+01 -8.833638191223144531e+00 -1.372147178649902344e+01 -1.047848105430603027e+00
3.166518974304199219e+01 8.711700439453125000e+00 2.154669046401977539e+00 8.711700439453125000e+00 1.552904224395751953e+01 1.398596096038818359e+01 2.154669046401977539e+00 1.398596096038818359e+01 2.271316200494766235e-01
7.897582054138183594e+00 -1.678945922851562500e+01 1.565038710832595825e-01 -1.678945922851562500e+01 7.146320343017578125e+00 -2.148301124572753906e+01 1.565038710832595825e-01 -2.148301124572753906e+01 -1.090501976013183594e+01
9.736175537109375000e+00 -1.493070697784423828e+01 -5.119424819946289062e+00 -1.493070697784423828e+01 3.123951339721679688e+01 -1.185862350463867188e+01 -5.119424819946289062e+00 -1.185862350463867188e+01 -8.645195007324218750e+00
-2.587573814392089844e+01 5.947807312011718750e+00 -5.294768810272216797e+00 5.947807312011718750e+00 -1.241374683380126953e+01 4.895942211151123047e+00 -5.294768810272216797e+00 4.895942211151123047e+00 -3.958447694778442383e+00
3.004209756851196289e+00 -1.750959205627441406e+01 -2.305545616149902344e+01 -1.750959205627441406e+01 2.243905639648437500e+01 -4.391572475433349609e+00 -2.305545616149902344e+01 -4.391572475433349609e+00 -1.315160179138183594e+01
3.264890909194946289e+00 3.598606348037719727e+00 1.168427467346191406e+00 3.598606348037719727e+00 1.342073631286621094e+01 5.140560865402221680e-01 1.168427467346191406e+00 5.140560865402221680e-01 1.378268146514892578e+01
-3.814348983764648438e+01 1.783854603767395020e+00 -1.008967590332031250e+01 1.783854603767395020e+00 -8.496455192565917969e+00 4.175379276275634766e+00 -1.008967590332031250e+01 4.175379276275634766e+00 -2.920748901367187500e+01
-3.221331024169921875e+01 2.938731193542480469e+01 -8.505869865417480469e+00 2.938731193542480469e+01 2.992144584655761719e+01 -5.647118568420410156e+00 -8.505869865417480469e+00 -5.647118568420410156e+00 2.001785278320312500e+00
-3.342853546142578125e+01 1.765215873718261719e+01 5.201868057250976562e+00 1.765215873718261719e+01 -3.471636581420898438e+01 5.685815334320068359e+00 5.201868057250976562e+00 5.685815334320068359e+00 -3.384464263916015625e+01
-2.105396080017089844e+01 2.373107433319091797e+00 -1.301792144775390625e+01 2.373107433319091797e+00 -3.549456024169921875e+01 -6.310453891754150391e+00 -1.301792144775390625e+01 -6.310453891754150391e+00 3.937353372573852539e+00
1.016415405273437500e+01 -1.220134925842285156e+01 9.175812721252441406e+00 -1.220134925842285156e+01 -2.283636093139648438e+01 6.641637325286865234e+00 9.175812721252441406e+00 6.641637325286865234e+00 -1.195228672027587891e+01
1.081114768981933594e+01 -1.286147022247314453e+01 -8.828873634338378906e+00 -1.286147022247314453e+01 -8.663991928100585938e+00 1.074686241149902344e+01 -8.828873634338378906e+00 1.074686241149902344e+01 -2.174314880371093750e+01
-2.688501548767089844e+01 9.437827110290527344e+00 -7.379814624786376953e+00 9.437827110290527344e+00 3.615274429321289062e+01 -2.586190700531005859e+00 -7.379814624786376953e+00 -2.586190700531005859e+00 -1.670988947153091431e-01
-5.142724990844726562e+00 -1.579926109313964844e+01 -1.196352863311767578e+01 -1.579926109313964844e+01 -5.291779327392578125e+01 -2.079625320434570312e+01 -1.196352863311767578e+01 -2.079625320434570312e+01 -1.669548606872558594e+01
-1.060496139526367188e+01 -5.714387893676757812e+00 -1.445727825164794922e+00 -5.714387893676757812e+00 -6.036167621612548828e+00 -4.352772712707519531e+00 -1.445727825164794922e+00 -4.352772712707519531e+00 1.435522651672363281e+01
-8.717119216918945312e+00 -6.441612243652343750e+00 -4.267191410064697266e+00 -6.441612243652343750e+00 -4.182291793823242188e+01 7.714566707611083984e+00 -4.267191410064697266e+00 7.714566707611083984e+00 2.472869604825973511e-01
-4.203251361846923828e+00 -6.029911994934082031e+00 -2.040607643127441406e+01 -6.029911994934082031e+00 6.251026630401611328e+00 -7.270274162292480469e-01 -2.040607643127441406e+01 -7.270274162292480469e-01 -3.207695007324218750e+01
-1.029232025146484375e+01 -7.138607978820800781e+00 1.335878372192382812e+01 -7.138607978820800781e+00 -6.796981334686279297e+00 -5.584170818328857422e+00 1.335878372192382812e+01 -5.584170818328857422e+00 -8.352931976318359375e+00
-2.198698997497558594e+01 -6.416162967681884766e+00 -1.996683311462402344e+01 -6.416162967681884766e+00 -3.040590476989746094e+01 -1.360626220703125000e+01 -1.996683311462402344e+01 -1.360626220703125000e+01 -1.503354167938232422e+01
-7.327616214752197266e+00 8.419457435607910156e+00 -7.767288208007812500e+00 8.419457435607910156e+00 -2.159029579162597656e+01 -7.068471610546112061e-02 -7.767288208007812500e+00 -7.068471610546112061e-02 7.353361845016479492e-01
1.928484535217285156e+01 -7.098498344421386719e+00 6.258171081542968750e+00 -7.098498344421386719e+00 -3.957714080810546875e+01 1.754928779602050781e+01 6.258171081542968750e+00 1.754928779602050781e+01 -3.277567291259765625e+01
-2.693483352661132812e+00 2.313970565795898438e+00 -6.845697879791259766e+00 2.313970565795898438e+00 -2.601645278930664062e+01 -8.740016937255859375e+00 -6.845697879791259766e+00 -8.740016937255859375e+00 -3.932979583740234375e+00
-3.342588043212890625e+01 1.616305828094482422e+00 1.806237411499023438e+01 1.616305828094482422e+00 -2.642156600952148438e+01 1.235761070251464844e+01 1.806237411499023438e+01 1.235761070251464844e+01 -2.790988922119140625e+01
-2.761795425415039062e+01 -9.790985107421875000e+00 1.099979686737060547e+01 -9.790985107421875000e+00 -4.202454757690429688e+01 2.470811462402343750e+01 1.099979686737060547e+01 2.470811462402343750e+01 -2.625537681579589844e+01
-2.332354736328125000e+01 1.689798927307128906e+01 -2.440781116485595703e+00 1.689798927307128906e+01 -4.570728302001953125e+01 -1.675865936279296875e+01 -2.440781116485595703e+00 -1.675865936279296875e+01 -1.238773918151855469e+01
-3.944532012939453125e+01 7.444404602050781250e+00 -1.100059890747070312e+01 7.444404602050781250e+00 -4.970151138305664062e+01 7.617927074432373047e+00 -1.100059890747070312e+01 7.617927074432373047e+00 -2.345540046691894531e+01
-1.275629997253417969e+01 1.334078979492187500e+01 9.277991294860839844e+00 1.334078979492187500e+01 -3.240256881713867188e+01 -2.228325271606445312e+01 9.277991294860839844e+00 -2.228325271606445312e+01 -1.033403682708740234e+01
-6.255442047119140625e+01 -1.418945980072021484e+01 1.428143024444580078e+01 -1.418945980072021484e+01 -5.329949188232421875e+01 7.120345592498779297e+00 1.428143024444580078e+01 7.120345592498779297e+00 -3.354579925537109375e+01
-6.907475280761718750e+01 2.060971021652221680e+00 -7.516218423843383789e-01 2.060971021652221680e+00 -5.183976745605468750e+01 6.667072772979736328e+00 -7.516218423843383789e-01 6.667072772979736328e+00 -7.338075256347656250e+01
-9.286594390869140625e+00 -9.705792427062988281e+00 1.919064140319824219e+01 -9.705792427062988281e+00 -4.219580841064453125e+01 6.529135107994079590e-01 1.919064140319824219e+01 6.529135107994079590e-01 -4.528504848480224609e+00
-5.090894699096679688e+01 -2.553396987915039062e+01 1.947080612182617188e+01 -2.553396987915039062e+01 -4.739450454711914062e+01 -5.249949932098388672e+00 1.947080612182617188e+01 -5.249949932098388672e+00 -8.589052581787109375e+01
-2.423118591308593750e+01 8.073513984680175781e+00 -3.903538465499877930e+00 8.073513984680175781e+00 -2.221463966369628906e+01 4.933001041412353516e+00 -3.903538465499877930e+00 4.933001041412353516e+00 -4.846548080444335938e+01
-6.359729385375976562e+01 5.460680961608886719e+00 -2.209794998168945312e+01 5.460680961608886719e+00 -4.607713699340820312e+01 1.688739395141601562e+01 -2.209794998168945312e+01 1.688739395141601562e+01 -2.160673332214355469e+01
-3.212929916381835938e+01 2.716583633422851562e+01 1.951211929321289062e+01 2.716583633422851562e+01 -6.306874275207519531e+00 5.996856689453125000e+00 1.951211929321289062e+01 5.996856689453125000e+00 -4.897989654541015625e+01
-1.594551467895507812e+01 4.928195476531982422e+00 2.081650257110595703e+00 4.928195476531982422e+00 -2.781146240234375000e+01 -1.567288112640380859e+01 2.081650257110595703e+00 -1.567288112640380859e+01 -2.045258903503417969e+01
-4.640920257568359375e+01 1.674241447448730469e+01 -5.932336330413818359e+00 1.674241447448730469e+01 -6.214873504638671875e+01 -1.357085800170898438e+01 -5.932336330413818359e+00 -1.357085800170898438e+01 -5.852022171020507812e+01
-1.087711429595947266e+01 -2.216182518005371094e+01 1.572979831695556641e+01 -2.216182518005371094e+01 -2.450028419494628906e+01 -1.694895553588867188e+01 1.572979831695556641e+01 -1.694895553588867188e+01 -2.127827835083007812e+01
8.546616554260253906e+00 4.470874786376953125e+00 9.056342244148254395e-01 4.470874786376953125e+00 -1.616424179077148438e+01 3.004373013973236084e-01 9.056342244148254395e-01 3.004373013973236084e-01 -1.353250694274902344e+01
-3.331323242187500000e+01 -7.949947357177734375e+00 -3.474840164184570312e+00 -7.949947357177734375e+00 -1.970027732849121094e+01 1.706653976440429688e+01 -3.474840164184570312e+00 1.706653976440429688e+01 -2.455379486083984375e+00
-2.881605339050292969e+01 -7.653950691223144531e+00 -1.011885261535644531e+01 -7.653950691223144531e+00 -5.880923461914062500e+01 -9.643688201904296875e-01 -1.011885261535644531e+01 -9.643688201904296875e-01 -8.496537780761718750e+01
1.230575323104858398e+00 1.470535278320312500e+01 -8.969227790832519531e+00 1.470535278320312500e+01 -7.591724395751953125e+01 -9.322283744812011719e+00 -8.969227790832519531e+00 -9.322283744812011719e+00 -6.067136764526367188e+01
1.695255088806152344e+01 1.407575130462646484e+01 8.513904571533203125e+00 1.407575130462646484e+01 3.074777030944824219e+01 -5.180487632751464844e+00 8.513904571533203125e+00 -5.180487632751464844e+00 1.151510906219482422e+01
-2.375279617309570312e+01 7.765733718872070312e+00 -8.141154289245605469e+00 7.765733718872070312e+00 -7.878914356231689453e+00 -3.750147581100463867e+00 -8.141154289245605469e+00 -3.750147581100463867e+00 -5.193630218505859375e+00
1.991767501831054688e+01 1.033310317993164062e+01 4.229803085327148438e+00 1.033310317993164062e+01 -9.341333389282226562e+00 -1.936348533630371094e+01 4.229803085327148438e+00 -1.936348533630371094e+01 -2.827036285400390625e+01
-3.127424240112304688e+01 5.872624397277832031e+00 -5.871006011962890625e+00 5.872624397277832031e+00 -3.097991561889648438e+01 -7.818068981170654297e+00 -5.871006011962890625e+00 -7.818068981170654297e+00 -1.062308025360107422e+01
-1.674281120300292969e+01 -9.404893875122070312e+00 1.924288392066955566e+00 -9.404893875122070312e+00 -3.389392852783203125e+01 -2.762760925292968750e+01 1.924288392066955566e+00 -2.762760925292968750e+01 1.076120495796203613e+00
-1.957556724548339844e+01 -1.027698135375976562e+01 2.160330772399902344e+01 -1.027698135375976562e+01 -5.014902591705322266e+00 1.313505172729492188e+01 2.160330772399902344e+01 1.313505172729492188e+01 -1.958893966674804688e+01
6.835722923278808594e+00 -7.307267189025878906e+00 -1.438844871520996094e+01 -7.307267189025878906e+00 -4.020437240600585938e+01 3.697277784347534180e+00 -1.438844871520996094e+01 3.697277784347534180e+00 -4.804610443115234375e+01
3.180302429199218750e+01 2.486312866210937500e+01 1.797946166992187500e+01 2.486312866210937500e+01 -2.364462280273437500e+01 1.313583660125732422e+01 1.797946166992187500e+01 1.313583660125732422e+01 -5.156830310821533203e+00
-2.000969123840332031e+01 -7.811018466949462891e+00 1.156973361968994141e+01 -7.811018466949462891e+00 -6.275055408477783203e+00 -7.262048244476318359e+00 1.156973361968994141e+01 -7.262048244476318359e+00 -2.609770584106445312e+01
-3.531447219848632812e+01 -1.690806508064270020e+00 -5.123566627502441406e+00 -1.690806508064270020e+00 -5.007177352905273438e+01 1.240948009490966797e+01 -5.123566627502441406e+00 1.240948009490966797e+01 -2.052046775817871094e+01
-3.416672515869140625e+01 -4.903564453125000000e+00 -2.371240425109863281e+01 -4.903564453125000000e+00 -8.055037689208984375e+01 -6.794059276580810547e+00 -2.371240425109863281e+01 -6.794059276580810547e+00 -3.504854965209960938e+01
-3.257851028442382812e+01 -1.081361198425292969e+01 -1.403478717803955078e+01 -1.081361198425292969e+01 5.535552024841308594e+00 7.924060344696044922e+00 -1.403478717803955078e+01 7.924060344696044922e+00 2.744518816471099854e-01