1.795499992370605469e+01 0.000000000000000000e+00 0.000000000000000000e+00 -1.870000064373016357e-01 1.812000083923339844e+01 0.000000000000000000e+00 -3.750000000000000000e-01 -3.639999926090240479e-01 1.788299942016601562e+01
1.838899993896484375e+01 0.000000000000000000e+00 0.000000000000000000e+00 -1.920000016689300537e-01 1.855800056457519531e+01 0.000000000000000000e+00 -3.840000033378601074e-01 -3.729999959468841553e-01 1.831500053405761719e+01
1.882099914550781250e+01 0.000000000000000000e+00 0.000000000000000000e+00 -1.959999948740005493e-01 1.899399948120117188e+01 0.000000000000000000e+00 -3.930000066757202148e-01 -3.819999992847442627e-01 1.874500083923339844e+01
1.881100082397460938e+01 0.000000000000000000e+00 0.000000000000000000e+00 -1.959999948740005493e-01 1.898399925231933594e+01 0.000000000000000000e+00 -3.919999897480010986e-01 -3.819999992847442627e-01 1.873600006103515625e+01
1.900499916076660156e+01 0.000000000000000000e+00 0.000000000000000000e+00 -1.979999989271163940e-01 1.918000030517578125e+01 0.000000000000000000e+00 -3.959999978542327881e-01 -3.860000073909759521e-01 1.892799949645996094e+01
1.894499969482421875e+01 0.000000000000000000e+00 0.000000000000000000e+00 -1.969999969005584717e-01 1.912000083923339844e+01 0.000000000000000000e+00 -3.950000107288360596e-01 -3.840000033378601074e-01 1.886899948120117188e+01
1.897599983215332031e+01 0.000000000000000000e+00 0.000000000000000000e+00 -1.979999989271163940e-01 1.915099906921386719e+01 0.000000000000000000e+00 -3.959999978542327881e-01 -3.849999904632568359e-01 1.889999961853027344e+01
1.894400024414062500e+01 0.000000000000000000e+00 0.000000000000000000e+00 -1.969999969005584717e-01 1.911800003051757812e+01 0.000000000000000000e+00 -3.950000107288360596e-01 -3.840000033378601074e-01 1.886700057983398438e+01
1.894899940490722656e+01 0.000000000000000000e+00 0.000000000000000000e+00 -1.969999969005584717e-01 1.912299919128417969e+01 0.000000000000000000e+00 -3.950000107288360596e-01 -3.840000033378601074e-01 1.887299919128417969e+01
1.893199920654296875e+01 0.000000000000000000e+00 0.000000000000000000e+00 -1.969999969005584717e-01 1.910499954223632812e+01 0.000000000000000000e+00 -3.950000107288360596e-01 -3.840000033378601074e-01 1.885499954223632812e+01
1.887100028991699219e+01 0.000000000000000000e+00 0.000000000000000000e+00 -1.969999969005584717e-01 1.904400062561035156e+01 0.000000000000000000e+00 -3.939999938011169434e-01 -3.829999864101409912e-01 1.879500007629394531e+01
1.871500015258789062e+01 0.000000000000000000e+00 0.000000000000000000e+00 -1.949999928474426270e-01 1.888699913024902344e+01 0.000000000000000000e+00 -3.899999856948852539e-01 -3.799999952316284180e-01 1.863999938964843750e+01
1.899300003051757812e+01 0.000000000000000000e+00 0.000000000000000000e+00 -1.979999989271163940e-01 1.916699981689453125e+01 0.000000000000000000e+00 -3.959999978542327881e-01 -3.849999904632568359e-01 1.891600036621093750e+01
1.897699928283691406e+01 0.000000000000000000e+00 0.000000000000000000e+00 -1.979999989271163940e-01 1.915099906921386719e+01 0.000000000000000000e+00 -3.959999978542327881e-01 -3.849999904632568359e-01 1.889999961853027344e+01
1.883499908447265625e+01 0.000000000000000000e+00 0.000000000000000000e+00 -1.959999948740005493e-01 1.900799942016601562e+01 0.000000000000000000e+00 -3.930000066757202148e-01 -3.819999992847442627e-01 1.876000022888183594e+01
1.917799949645996094e+01 0.000000000000000000e+00 0.000000000000000000e+00 -2.000000029802322388e-01 1.935400009155273438e+01 0.000000000000000000e+00 -4.000000059604644775e-01 -3.889999985694885254e-01 1.910099983215332031e+01
1.891600036621093750e+01 0.000000000000000000e+00 0.000000000000000000e+00 -1.969999969005584717e-01 1.909000015258789062e+01 0.000000000000000000e+00 -3.950000107288360596e-01 -3.840000033378601074e-01 1.884000015258789062e+01
1.919000053405761719e+01 0.000000000000000000e+00 0.000000000000000000e+00 -2.000000029802322388e-01 1.936700057983398438e+01 0.000000000000000000e+00 -4.000000059604644775e-01 -3.889999985694885254e-01 1.911300086975097656e+01
1.895199966430664062e+01 0.000000000000000000e+00 0.000000000000000000e+00 -1.969999969005584717e-01 1.912599945068359375e+01 0.000000000000000000e+00 -3.950000107288360596e-01 -3.840000033378601074e-01 1.887599945068359375e+01
1.934199905395507812e+01 0.000000000000000000e+00 0.000000000000000000e+00 -2.010000050067901611e-01 1.952000045776367188e+01 0.000000000000000000e+00 -4.040000140666961670e-01 -3.919999897480010986e-01 1.926499938964843750e+01
1.924200057983398438e+01 0.000000000000000000e+00 0.000000000000000000e+00 -2.000000029802322388e-01 1.941799926757812500e+01 0.000000000000000000e+00 -4.009999930858612061e-01 -3.899999856948852539e-01 1.916399955749511719e+01
1.933900070190429688e+01 0.000000000000000000e+00 0.000000000000000000e+00 -2.010000050067901611e-01 1.951600074768066406e+01 0.000000000000000000e+00 -4.029999971389770508e-01 -3.919999897480010986e-01 1.926099967956542969e+01
1.946299934387207031e+01 0.000000000000000000e+00 0.000000000000000000e+00 -2.029999941587448120e-01 1.964200019836425781e+01 0.000000000000000000e+00 -4.059999883174896240e-01 -3.950000107288360596e-01 1.938500022888183594e+01
1.942799949645996094e+01 0.000000000000000000e+00 0.000000000000000000e+00 -2.020000070333480835e-01 1.960700035095214844e+01 0.000000000000000000e+00 -4.050000011920928955e-01 -3.939999938011169434e-01 1.935000038146972656e+01
1.927199935913085938e+01 0.000000000000000000e+00 0.000000000000000000e+00 -2.010000050067901611e-01 1.944899940490722656e+01 0.000000000000000000e+00 -4.020000100135803223e-01 -3.910000026226043701e-01 1.919499969482421875e+01
1.876499938964843750e+01 0.000000000000000000e+00 0.000000000000000000e+00 -1.949999928474426270e-01 1.893799972534179688e+01 0.000000000000000000e+00 -3.910000026226043701e-01 -3.810000121593475342e-01 1.869000053405761719e+01
1.866500091552734375e+01 0.000000000000000000e+00 0.000000000000000000e+00 -1.940000057220458984e-01 1.883699989318847656e+01 0.000000000000000000e+00 -3.889999985694885254e-01 -3.790000081062316895e-01 1.859000015258789062e+01
1.869700050354003906e+01 0.000000000000000000e+00 0.000000000000000000e+00 -1.949999928474426270e-01 1.886899948120117188e+01 0.000000000000000000e+00 -3.899999856948852539e-01 -3.790000081062316895e-01 1.862199974060058594e+01
1.882799911499023438e+01 0.000000000000000000e+00 0.000000000000000000e+00 -1.959999948740005493e-01 1.900099945068359375e+01 0.000000000000000000e+00 -3.930000066757202148e-01 -3.819999992847442627e-01 1.875200080871582031e+01
1.887400054931640625e+01 0.000000000000000000e+00 0.000000000000000000e+00 -1.969999969005584717e-01 1.904700088500976562e+01 0.000000000000000000e+00 -3.939999938011169434e-01 -3.829999864101409912e-01 1.879800033569335938e+01
1.878800010681152344e+01 0.000000000000000000e+00 0.000000000000000000e+00 -1.959999948740005493e-01 1.895999908447265625e+01 0.000000000000000000e+00 -3.919999897480010986e-01 -3.810000121593475342e-01 1.871199989318847656e+01
1.895299911499023438e+01 0.000000000000000000e+00 0.000000000000000000e+00 -1.969999969005584717e-01 1.912800025939941406e+01 0.000000000000000000e+00 -3.950000107288360596e-01 -3.840000033378601074e-01 1.887700080871582031e+01
1.913899993896484375e+01 0.000000000000000000e+00 0.000000000000000000e+00 -1.990000009536743164e-01 1.931500053405761719e+01 0.000000000000000000e+00 -3.989999890327453613e-01 -3.880000114440917969e-01 1.906200027465820312e+01
1.890999984741210938e+01 0.000000000000000000e+00 0.000000000000000000e+00 -1.969999969005584717e-01 1.908399963378906250e+01 0.000000000000000000e+00 -3.950000107288360596e-01 -3.840000033378601074e-01 1.883399963378906250e+01
1.911300086975097656e+01 0.000000000000000000e+00 0.000000000000000000e+00 -1.990000009536743164e-01 1.928899955749511719e+01 0.000000000000000000e+00 -3.989999890327453613e-01 -3.880000114440917969e-01 1.903599929809570312e+01
1.912400054931640625e+01 0.000000000000000000e+00 0.000000000000000000e+00 -1.990000009536743164e-01 1.929899978637695312e+01 0.000000000000000000e+00 -3.989999890327453613e-01 -3.880000114440917969e-01 1.904700088500976562e+01
1.881200027465820312e+01 0.000000000000000000e+00 0.000000000000000000e+00 -1.959999948740005493e-01 1.898500061035156250e+01 0.000000000000000000e+00 -3.919999897480010986e-01 -3.819999992847442627e-01 1.873600006103515625e+01
1.898600006103515625e+01 0.000000000000000000e+00 0.000000000000000000e+00 -1.979999989271163940e-01 1.916099929809570312e+01 0.000000000000000000e+00 -3.959999978542327881e-01 -3.849999904632568359e-01 1.890999984741210938e+01
1.897900009155273438e+01 0.000000000000000000e+00 0.000000000000000000e+00 -1.979999989271163940e-01 1.915299987792968750e+01 0.000000000000000000e+00 -3.959999978542327881e-01 -3.849999904632568359e-01 1.890299987792968750e+01
1.882099914550781250e+01 0.000000000000000000e+00 0.000000000000000000e+00 -1.959999948740005493e-01 1.899399948120117188e+01 0.000000000000000000e+00 -3.930000066757202148e-01 -3.819999992847442627e-01 1.874600028991699219e+01
1.912999916076660156e+01 0.000000000000000000e+00 0.000000000000000000e+00 -1.990000009536743164e-01 1.930599975585937500e+01 0.000000000000000000e+00 -3.989999890327453613e-01 -3.880000114440917969e-01 1.905299949645996094e+01
1.901000022888183594e+01 0.000000000000000000e+00 0.000000000000000000e+00 -1.979999989271163940e-01 1.918400001525878906e+01 0.000000000000000000e+00 -3.970000147819519043e-01 -3.860000073909759521e-01 1.893300056457519531e+01
1.892799949645996094e+01 0.000000000000000000e+00 0.000000000000000000e+00 -1.969999969005584717e-01 1.910199928283691406e+01 0.000000000000000000e+00 -3.950000107288360596e-01 -3.840000033378601074e-01 1.885199928283691406e+01
1.888100051879882812e+01 0.000000000000000000e+00 0.000000000000000000e+00 -1.969999969005584717e-01 1.905500030517578125e+01 0.000000000000000000e+00 -3.939999938011169434e-01 -3.829999864101409912e-01 1.880500030517578125e+01
1.925499916076660156e+01 0.000000000000000000e+00 0.000000000000000000e+00 -2.010000050067901611e-01 1.943199920654296875e+01 0.000000000000000000e+00 -4.020000100135803223e-01 -3.910000026226043701e-01 1.917799949645996094e+01
1.897800064086914062e+01 0.000000000000000000e+00 0.000000000000000000e+00 -1.979999989271163940e-01 1.915299987792968750e+01 0.000000000000000000e+00 -3.959999978542327881e-01 -3.849999904632568359e-01 1.890200042724609375e+01
1.906699943542480469e+01 0.000000000000000000e+00 0.000000000000000000e+00 -1.990000009536743164e-01 1.924200057983398438e+01 0.000000000000000000e+00 -3.980000019073486328e-01 -3.869999945163726807e-01 1.898999977111816406e+01
1.901799964904785156e+01 0.000000000000000000e+00 0.000000000000000000e+00 -1.979999989271163940e-01 1.919300079345703125e+01 0.000000000000000000e+00 -3.970000147819519043e-01 -3.860000073909759521e-01 1.894099998474121094e+01
1.916200065612792969e+01 0.000000000000000000e+00 0.000000000000000000e+00 -2.000000029802322388e-01 1.933900070190429688e+01 0.000000000000000000e+00 -4.000000059604644775e-01 -3.889999985694885254e-01 1.908499908447265625e+01
1.734499931335449219e+01 0.000000000000000000e+00 0.000000000000000000e+00 -1.809999942779541016e-01 1.750499916076660156e+01 0.000000000000000000e+00 -3.619999885559082031e-01 -3.519999980926513672e-01 1.727599906921386719e+01
1.843799972534179688e+01 0.000000000000000000e+00 0.000000000000000000e+00 -1.920000016689300537e-01 1.860700035095214844e+01 0.000000000000000000e+00 -3.849999904632568359e-01 -3.740000128746032715e-01 1.836400032043457031e+01
1.917300033569335938e+01 0.000000000000000000e+00 0.000000000000000000e+00 -2.000000029802322388e-01 1.934900093078613281e+01 0.000000000000000000e+00 -4.000000059604644775e-01 -3.889999985694885254e-01 1.909499931335449219e+01
1.924300003051757812e+01 0.000000000000000000e+00 0.000000000000000000e+00 -2.000000029802322388e-01 1.942000007629394531e+01 0.000000000000000000e+00 -4.009999930858612061e-01 -3.899999856948852539e-01 1.916500091552734375e+01
1.946699905395507812e+01 0.000000000000000000e+00 0.000000000000000000e+00 -2.029999941587448120e-01 1.964599990844726562e+01 0.000000000000000000e+00 -4.059999883174896240e-01 -3.950000107288360596e-01 1.938899993896484375e+01
1.943499946594238281e+01 0.000000000000000000e+00 0.000000000000000000e+00 -2.020000070333480835e-01 1.961300086975097656e+01 0.000000000000000000e+00 -4.050000011920928955e-01 -3.939999938011169434e-01 1.935600090026855469e+01
1.941900062561035156e+01 0.000000000000000000e+00 0.000000000000000000e+00 -2.020000070333480835e-01 1.959700012207031250e+01 0.000000000000000000e+00 -4.050000011920928955e-01 -3.939999938011169434e-01 1.934099960327148438e+01
1.937999916076660156e+01 0.000000000000000000e+00 0.000000000000000000e+00 -2.020000070333480835e-01 1.955900001525878906e+01 0.000000000000000000e+00 -4.040000140666961670e-01 -3.930000066757202148e-01 1.930200004577636719e+01
1.952199935913085938e+01 0.000000000000000000e+00 0.000000000000000000e+00 -2.029999941587448120e-01 1.970100021362304688e+01 0.000000000000000000e+00 -4.070000052452087402e-01 -3.959999978542327881e-01 1.944300079345703125e+01
1.946999931335449219e+01 0.000000000000000000e+00 0.000000000000000000e+00 -2.029999941587448120e-01 1.964900016784667969e+01 0.000000000000000000e+00 -4.059999883174896240e-01 -3.950000107288360596e-01 1.939100074768066406e+01
1.940200042724609375e+01 0.000000000000000000e+00 0.000000000000000000e+00 -2.020000070333480835e-01 1.957999992370605469e+01 0.000000000000000000e+00 -4.050000011920928955e-01 -3.939999938011169434e-01 1.932399940490722656e+01
1.912999916076660156e+01 0.000000000000000000e+00 0.000000000000000000e+00 -1.990000009536743164e-01 1.930599975585937500e+01 0.000000000000000000e+00 -3.989999890327453613e-01 -3.880000114440917969e-01 1.905299949645996094e+01
1.950300025939941406e+01 0.000000000000000000e+00 0.000000000000000000e+00 -2.029999941587448120e-01 1.968300056457519531e+01 0.000000000000000000e+00 -4.070000052452087402e-01 -3.959999978542327881e-01 1.942499923706054688e+01
1.958099937438964844e+01 0.000000000000000000e+00 0.000000000000000000e+00 -2.039999961853027344e-01 1.976099967956542969e+01 0.000000000000000000e+00 -4.090000092983245850e-01 -3.970000147819519043e-01 1.950200080871582031e+01
1.964500045776367188e+01 0.000000000000000000e+00 0.000000000000000000e+00 -2.049999982118606567e-01 1.982600021362304688e+01 0.000000000000000000e+00 -4.099999964237213135e-01 -3.989999890327453613e-01 1.956599998474121094e+01
1.959399986267089844e+01 0.000000000000000000e+00 0.000000000000000000e+00 -2.039999961853027344e-01 1.977400016784667969e+01 0.000000000000000000e+00 -4.090000092983245850e-01 -3.970000147819519043e-01 1.951499938964843750e+01
1.941300010681152344e+01 0.000000000000000000e+00 0.000000000000000000e+00 -2.020000070333480835e-01 1.959099960327148438e+01 0.000000000000000000e+00 -4.050000011920928955e-01 -3.939999938011169434e-01 1.933499908447265625e+01
1.956900024414062500e+01 0.000000000000000000e+00 0.000000000000000000e+00 -2.039999961853027344e-01 1.974799919128417969e+01 0.000000000000000000e+00 -4.079999923706054688e-01 -3.970000147819519043e-01 1.948999977111816406e+01
1.944199943542480469e+01 0.000000000000000000e+00 0.000000000000000000e+00 -2.020000070333480835e-01 1.962000083923339844e+01 0.000000000000000000e+00 -4.059999883174896240e-01 -3.939999938011169434e-01 1.936300086975097656e+01
1.950699996948242188e+01 0.000000000000000000e+00 0.000000000000000000e+00 -2.029999941587448120e-01 1.968600082397460938e+01 0.000000000000000000e+00 -4.070000052452087402e-01 -3.959999978542327881e-01 1.942799949645996094e+01
1.966699981689453125e+01 0.000000000000000000e+00 0.000000000000000000e+00 -2.049999982118606567e-01 1.984799957275390625e+01 0.000000000000000000e+00 -4.099999964237213135e-01 -3.989999890327453613e-01 1.958799934387207031e+01
1.970599937438964844e+01 0.000000000000000000e+00 0.000000000000000000e+00 -2.049999982118606567e-01 1.988699913024902344e+01 0.000000000000000000e+00 -4.110000133514404297e-01 -4.000000059604644775e-01 1.962700080871582031e+01
1.734499931335449219e+01 0.000000000000000000e+00 0.000000000000000000e+00 -1.809999942779541016e-01 1.750499916076660156e+01 0.000000000000000000e+00 -3.619999885559082031e-01 -3.519999980926513672e-01 1.727599906921386719e+01
1.833099937438964844e+01 0.000000000000000000e+00 0.000000000000000000e+00 -1.909999996423721313e-01 1.849900054931640625e+01 0.000000000000000000e+00 -3.819999992847442627e-01 -3.720000088214874268e-01 1.825699996948242188e+01
1.872100067138671875e+01 0.000000000000000000e+00 0.000000000000000000e+00 -1.949999928474426270e-01 1.889299964904785156e+01 0.000000000000000000e+00 -3.910000026226043701e-01 -3.799999952316284180e-01 1.864599990844726562e+01
1.892300033569335938e+01 0.000000000000000000e+00 0.000000000000000000e+00 -1.969999969005584717e-01 1.909700012207031250e+01 0.000000000000000000e+00 -3.950000107288360596e-01 -3.840000033378601074e-01 1.884700012207031250e+01
1.904599952697753906e+01 0.000000000000000000e+00 0.000000000000000000e+00 -1.979999989271163940e-01 1.922100067138671875e+01 0.000000000000000000e+00 -3.970000147819519043e-01 -3.860000073909759521e-01 1.896999931335449219e+01
1.905999946594238281e+01 0.000000000000000000e+00 0.000000000000000000e+00 -1.990000009536743164e-01 1.923500061035156250e+01 0.000000000000000000e+00 -3.980000019073486328e-01 -3.869999945163726807e-01 1.898299980163574219e+01
1.900399971008300781e+01 0.000000000000000000e+00 0.000000000000000000e+00 -1.979999989271163940e-01 1.917900085449218750e+01 0.000000000000000000e+00 -3.959999978542327881e-01 -3.860000073909759521e-01 1.892799949645996094e+01
1.913599967956542969e+01 0.000000000000000000e+00 0.000000000000000000e+00 -1.990000009536743164e-01 1.931100082397460938e+01 0.000000000000000000e+00 -3.989999890327453613e-01 -3.880000114440917969e-01 1.905900001525878906e+01
1.925300025939941406e+01 0.000000000000000000e+00 0.000000000000000000e+00 -2.010000050067901611e-01 1.943000030517578125e+01 0.000000000000000000e+00 -4.020000100135803223e-01 -3.910000026226043701e-01 1.917499923706054688e+01
1.925200080871582031e+01 0.000000000000000000e+00 0.000000000000000000e+00 -2.010000050067901611e-01 1.942900085449218750e+01 0.000000000000000000e+00 -4.020000100135803223e-01 -3.910000026226043701e-01 1.917399978637695312e+01
1.925300025939941406e+01 0.000000000000000000e+00 0.000000000000000000e+00 -2.010000050067901611e-01 1.943000030517578125e+01 0.000000000000000000e+00 -4.020000100135803223e-01 -3.910000026226043701e-01 1.917600059509277344e+01
1.919300079345703125e+01 0.000000000000000000e+00 0.000000000000000000e+00 -2.000000029802322388e-01 1.937000083923339844e+01 0.000000000000000000e+00 -4.000000059604644775e-01 -3.889999985694885254e-01 1.911599922180175781e+01
1.901099967956542969e+01 0.000000000000000000e+00 0.000000000000000000e+00 -1.979999989271163940e-01 1.918499946594238281e+01 0.000000000000000000e+00 -3.970000147819519043e-01 -3.860000073909759521e-01 1.893400001525878906e+01
1.922999954223632812e+01 0.000000000000000000e+00 0.000000000000000000e+00 -2.000000029802322388e-01 1.940699958801269531e+01 0.000000000000000000e+00 -4.009999930858612061e-01 -3.899999856948852539e-01 1.915299987792968750e+01
1.926099967956542969e+01 0.000000000000000000e+00 0.000000000000000000e+00 -2.010000050067901611e-01 1.943799972534179688e+01 0.000000000000000000e+00 -4.020000100135803223e-01 -3.910000026226043701e-01 1.918400001525878906e+01
1.924399948120117188e+01 0.000000000000000000e+00 0.000000000000000000e+00 -2.000000029802322388e-01 1.942099952697753906e+01 0.000000000000000000e+00 -4.009999930858612061e-01 -3.899999856948852539e-01 1.916699981689453125e+01
1.931599998474121094e+01 0.000000000000000000e+00 0.000000000000000000e+00 -2.010000050067901611e-01 1.949399948120117188e+01 0.000000000000000000e+00 -4.029999971389770508e-01 -3.919999897480010986e-01 1.923800086975097656e+01
1.943899917602539062e+01 0.000000000000000000e+00 0.000000000000000000e+00 -2.020000070333480835e-01 1.961700057983398438e+01 0.000000000000000000e+00 -4.059999883174896240e-01 -3.939999938011169434e-01 1.936100006103515625e+01
1.936000061035156250e+01 0.000000000000000000e+00 0.000000000000000000e+00 -2.020000070333480835e-01 1.953800010681152344e+01 0.000000000000000000e+00 -4.040000140666961670e-01 -3.930000066757202148e-01 1.928199958801269531e+01
1.943799972534179688e+01 0.000000000000000000e+00 0.000000000000000000e+00 -2.020000070333480835e-01 1.961700057983398438e+01 0.000000000000000000e+00 -4.059999883174896240e-01 -3.939999938011169434e-01 1.936000061035156250e+01
1.928300094604492188e+01 0.000000000000000000e+00 0.000000000000000000e+00 -2.010000050067901611e-01 1.946100044250488281e+01 0.000000000000000000e+00 -4.020000100135803223e-01 -3.910000026226043701e-01 1.920599937438964844e+01
1.932099914550781250e+01 0.000000000000000000e+00 0.000000000000000000e+00 -2.010000050067901611e-01 1.949799919128417969e+01 0.000000000000000000e+00 -4.029999971389770508e-01 -3.919999897480010986e-01 1.924300003051757812e+01
1.925699996948242188e+01 0.000000000000000000e+00 0.000000000000000000e+00 -2.010000050067901611e-01 1.943400001525878906e+01 0.000000000000000000e+00 -4.020000100135803223e-01 -3.910000026226043701e-01 1.918000030517578125e+01
1.897900009155273438e+01 0.000000000000000000e+00 0.000000000000000000e+00 -1.979999989271163940e-01 1.915299987792968750e+01 0.000000000000000000e+00 -3.959999978542327881e-01 -3.849999904632568359e-01 1.890200042724609375e+01
1.916399955749511719e+01 0.000000000000000000e+00 0.000000000000000000e+00 -2.000000029802322388e-01 1.934099960327148438e+01 0.000000000000000000e+00 -4.000000059604644775e-01 -3.889999985694885254e-01 1.908699989318847656e+01
1.790299987792968750e+01 0.000000000000000000e+00 0.000000000000000000e+00 -1.860000044107437134e-01 1.806699943542480469e+01 0.000000000000000000e+00 -3.729999959468841553e-01 -3.630000054836273193e-01 1.782999992370605469e+01
1.834600067138671875e+01 0.000000000000000000e+00 0.000000000000000000e+00 -1.909999996423721313e-01 1.851399993896484375e+01 0.000000000000000000e+00 -3.829999864101409912e-01 -3.720000088214874268e-01 1.827199935913085938e+01
1.849500083923339844e+01 0.000000000000000000e+00 0.000000000000000000e+00 -1.930000036954879761e-01 1.866500091552734375e+01 0.000000000000000000e+00 -3.860000073909759521e-01 -3.750000000000000000e-01 1.842000007629394531e+01
1.864900016784667969e+01 0.000000000000000000e+00 0.000000000000000000e+00 -1.940000057220458984e-01 1.881999969482421875e+01 0.000000000000000000e+00 -3.889999985694885254e-01 -3.779999911785125732e-01 1.857399940490722656e+01
1.889200019836425781e+01 0.000000000000000000e+00 0.000000000000000000e+00 -1.969999969005584717e-01 1.906500053405761719e+01 0.000000000000000000e+00 -3.939999938011169434e-01 -3.829999864101409912e-01 1.881599998474121094e+01
1.915699958801269531e+01 0.000000000000000000e+00 0.000000000000000000e+00 -2.000000029802322388e-01 1.933300018310546875e+01 0.000000000000000000e+00 -4.000000059604644775e-01 -3.889999985694885254e-01 1.907999992370605469e+01
1.940999984741210938e+01 0.000000000000000000e+00 0.000000000000000000e+00 -2.020000070333480835e-01 1.958799934387207031e+01 0.000000000000000000e+00 -4.050000011920928955e-01 -3.939999938011169434e-01 1.933200073242187500e+01
1.948500061035156250e+01 0.000000000000000000e+00 0.000000000000000000e+00 -2.029999941587448120e-01 1.966399955749511719e+01 0.000000000000000000e+00 -4.070000052452087402e-01 -3.950000107288360596e-01 1.940600013732910156e+01
1.957500076293945312e+01 0.000000000000000000e+00 0.000000000000000000e+00 -2.039999961853027344e-01 1.975499916076660156e+01 0.000000000000000000e+00 -4.079999923706054688e-01 -3.970000147819519043e-01 1.949600028991699219e+01
2.001199913024902344e+01 0.000000000000000000e+00 0.000000000000000000e+00 -2.080000042915344238e-01 2.019599914550781250e+01 0.000000000000000000e+00 -4.180000126361846924e-01 -4.059999883174896240e-01 1.993199920654296875e+01
1.984099960327148438e+01 0.000000000000000000e+00 0.000000000000000000e+00 -2.070000022649765015e-01 2.002300071716308594e+01 0.000000000000000000e+00 -4.140000045299530029e-01 -4.020000100135803223e-01 1.976099967956542969e+01
2.024600028991699219e+01 0.000000000000000000e+00 0.000000000000000000e+00 -2.109999954700469971e-01 2.043199920654296875e+01 0.000000000000000000e+00 -4.219999909400939941e-01 -4.110000133514404297e-01 2.016399955749511719e+01
2.021999931335449219e+01 0.000000000000000000e+00 0.000000000000000000e+00 -2.109999954700469971e-01 2.040600013732910156e+01 0.000000000000000000e+00 -4.219999909400939941e-01 -4.099999964237213135e-01 2.013899993896484375e+01
2.037599945068359375e+01 0.000000000000000000e+00 0.000000000000000000e+00 -2.119999974966049194e-01 2.056299972534179688e+01 0.000000000000000000e+00 -4.250000119209289551e-01 -4.129999876022338867e-01 2.029400062561035156e+01
2.025600051879882812e+01 0.000000000000000000e+00 0.000000000000000000e+00 -2.109999954700469971e-01 2.044199943542480469e+01 0.000000000000000000e+00 -4.230000078678131104e-01 -4.110000133514404297e-01 2.017399978637695312e+01
1.980900001525878906e+01 0.000000000000000000e+00 0.000000000000000000e+00 -2.060000002384185791e-01 1.999099922180175781e+01 0.000000000000000000e+00 -4.129999876022338867e-01 -4.020000100135803223e-01 1.972999954223632812e+01
2.029599952697753906e+01 0.000000000000000000e+00 0.000000000000000000e+00 -2.109999954700469971e-01 2.048200035095214844e+01 0.000000000000000000e+00 -4.230000078678131104e-01 -4.120000004768371582e-01 2.021400070190429688e+01
2.032200050354003906e+01 0.000000000000000000e+00 0.000000000000000000e+00 -2.119999974966049194e-01 2.050900077819824219e+01 0.000000000000000000e+00 -4.239999949932098389e-01 -4.120000004768371582e-01 2.023999977111816406e+01
2.023699951171875000e+01 0.000000000000000000e+00 0.000000000000000000e+00 -2.109999954700469971e-01 2.042300033569335938e+01 0.000000000000000000e+00 -4.219999909400939941e-01 -4.110000133514404297e-01 2.015500068664550781e+01
1.995000076293945312e+01 0.000000000000000000e+00 0.000000000000000000e+00 -2.080000042915344238e-01 2.013400077819824219e+01 0.000000000000000000e+00 -4.160000085830688477e-01 -4.050000011920928955e-01 1.987000083923339844e+01
1.793199920654296875e+01 0.000000000000000000e+00 0.000000000000000000e+00 -1.870000064373016357e-01 1.809700012207031250e+01 0.000000000000000000e+00 -3.740000128746032715e-01 -3.639999926090240479e-01 1.786000061035156250e+01
1.869400024414062500e+01 0.000000000000000000e+00 0.000000000000000000e+00 -1.949999928474426270e-01 1.886599922180175781e+01 0.000000000000000000e+00 -3.899999856948852539e-01 -3.790000081062316895e-01 1.861899948120117188e+01
1.932900047302246094e+01 0.000000000000000000e+00 0.000000000000000000e+00 -2.010000050067901611e-01 1.950699996948242188e+01 0.000000000000000000e+00 -4.029999971389770508e-01 -3.919999897480010986e-01 1.925099945068359375e+01
1.935199928283691406e+01 0.000000000000000000e+00 0.000000000000000000e+00 -2.020000070333480835e-01 1.953000068664550781e+01 0.000000000000000000e+00 -4.040000140666961670e-01 -3.930000066757202148e-01 1.927400016784667969e+01
1.967000007629394531e+01 0.000000000000000000e+00 0.000000000000000000e+00 -2.049999982118606567e-01 1.985099983215332031e+01 0.000000000000000000e+00 -4.099999964237213135e-01 -3.989999890327453613e-01 1.959099960327148438e+01
1.999600028991699219e+01 0.000000000000000000e+00 0.000000000000000000e+00 -2.080000042915344238e-01 2.018000030517578125e+01 0.000000000000000000e+00 -4.169999957084655762e-01 -4.059999883174896240e-01 1.991600036621093750e+01
1.991300010681152344e+01 0.000000000000000000e+00 0.000000000000000000e+00 -2.070000022649765015e-01 2.009600067138671875e+01 0.000000000000000000e+00 -4.149999916553497314e-01 -4.040000140666961670e-01 1.983300018310546875e+01
1.976099967956542969e+01 0.000000000000000000e+00 0.000000000000000000e+00 -2.060000002384185791e-01 1.994199943542480469e+01 0.000000000000000000e+00 -4.120000004768371582e-01 -4.009999930858612061e-01 1.968099975585937500e+01
1.975000000000000000e+01 0.000000000000000000e+00 0.000000000000000000e+00 -2.060000002384185791e-01 1.993099975585937500e+01 0.000000000000000000e+00 -4.120000004768371582e-01 -4.009999930858612061e-01 1.967000007629394531e+01
1.976199913024902344e+01 0.000000000000000000e+00 0.000000000000000000e+00 -2.060000002384185791e-01 1.994400024414062500e+01 0.000000000000000000e+00 -4.120000004768371582e-01 -4.009999930858612061e-01 1.968199920654296875e+01
1.968799972534179688e+01 0.000000000000000000e+00 0.000000000000000000e+00 -2.049999982118606567e-01 1.986899948120117188e+01 0.000000000000000000e+00 -4.110000133514404297e-01 -3.989999890327453613e-01 1.960899925231933594e+01
1.960300064086914062e+01 0.000000000000000000e+00 0.000000000000000000e+00 -2.039999961853027344e-01 1.978300094604492188e+01 0.000000000000000000e+00 -4.090000092983245850e-01 -3.980000019073486328e-01 1.952400016784667969e+01
1.955599975585937500e+01 0.000000000000000000e+00 0.000000000000000000e+00 -2.039999961853027344e-01 1.973600006103515625e+01 0.000000000000000000e+00 -4.079999923706054688e-01 -3.970000147819519043e-01 1.947699928283691406e+01
1.955699920654296875e+01 0.000000000000000000e+00 0.000000000000000000e+00 -2.039999961853027344e-01 1.973600006103515625e+01 0.000000000000000000e+00 -4.079999923706054688e-01 -3.970000147819519043e-01 1.947800064086914062e+01
1.979400062561035156e+01 0.000000000000000000e+00 0.000000000000000000e+00 -2.060000002384185791e-01 1.997599983215332031e+01 0.000000000000000000e+00 -4.129999876022338867e-01 -4.020000100135803223e-01 1.971500015258789062e+01