-6.066342578125000000e+04
-6.064804296875000000e+04
-6.063276562500000000e+04
-6.063518750000000000e+04
-6.063051953125000000e+04
-6.062891015625000000e+04
-6.062890234375000000e+04
-6.062603515625000000e+04
-6.062709375000000000e+04
-6.062885156250000000e+04
-6.062933984375000000e+04
-6.063608984375000000e+04
-6.063105468750000000e+04
-6.062876171875000000e+04
-6.062491015625000000e+04
-6.062985546875000000e+04
-6.062743359375000000e+04
-6.062795703125000000e+04
-6.062890234375000000e+04
-6.061932421875000000e+04
-6.061912500000000000e+04
-6.061662500000000000e+04
-6.061869140625000000e+04
-6.062128515625000000e+04
-6.062249609375000000e+04
-6.063053125000000000e+04
-6.063017578125000000e+04
-6.063386328125000000e+04
-6.062615625000000000e+04
-6.062794921875000000e+04
-6.062767578125000000e+04
-6.062693750000000000e+04
-6.062862890625000000e+04
-6.062889062500000000e+04
-6.062560156250000000e+04
-6.062634765625000000e+04
-6.062908593750000000e+04
-6.062794531250000000e+04
-6.062917968750000000e+04
-6.063139062500000000e+04
-6.062595312500000000e+04
-6.062465625000000000e+04
-6.062756250000000000e+04
-6.062696875000000000e+04
-6.062553906250000000e+04
-6.062539062500000000e+04
-6.062718359375000000e+04
-6.062584765625000000e+04
-6.062512109375000000e+04
-6.069317187500000000e+04
-6.065040234375000000e+04
-6.061056640625000000e+04
-6.061528906250000000e+04
-6.061519921875000000e+04
-6.061798437500000000e+04
-6.061408984375000000e+04
-6.061429296875000000e+04
-6.061414843750000000e+04
-6.060945703125000000e+04
-6.061383593750000000e+04
-6.061898437500000000e+04
-6.061373437500000000e+04
-6.061340625000000000e+04
-6.061910546875000000e+04
-6.061667578125000000e+04
-6.061146093750000000e+04
-6.061154687500000000e+04
-6.060711718750000000e+04
-6.060896484375000000e+04
-6.061096093750000000e+04
-6.061001171875000000e+04
-6.069317187500000000e+04
-6.064632031250000000e+04
-6.063201562500000000e+04
-6.062282031250000000e+04
-6.062122265625000000e+04
-6.062048828125000000e+04
-6.062275781250000000e+04
-6.061570703125000000e+04
-6.061737109375000000e+04
-6.062075781250000000e+04
-6.061727343750000000e+04
-6.061486328125000000e+04
-6.062241406250000000e+04
-6.061740625000000000e+04
-6.061598437500000000e+04
-6.061434765625000000e+04
-6.061530078125000000e+04
-6.061171875000000000e+04
-6.061815625000000000e+04
-6.061751171875000000e+04
-6.061713671875000000e+04
-6.061194531250000000e+04
-6.061138281250000000e+04
-6.061171093750000000e+04
-6.061743750000000000e+04
-6.065800390625000000e+04
-6.065000390625000000e+04
-6.063955468750000000e+04
-6.062700781250000000e+04
-6.062149218750000000e+04
-6.060970703125000000e+04
-6.060515625000000000e+04
-6.060172265625000000e+04
-6.060012500000000000e+04
-6.059648046875000000e+04
-6.059839062500000000e+04
-6.059073437500000000e+04
-6.059028515625000000e+04
-6.058621093750000000e+04
-6.058968750000000000e+04
-6.060051171875000000e+04
-6.058531250000000000e+04
-6.058478515625000000e+04
-6.058831250000000000e+04
-6.059031250000000000e+04
-6.065826171875000000e+04
-6.063289453125000000e+04
-6.060640625000000000e+04
-6.060952734375000000e+04
-6.060382812500000000e+04
-6.059913671875000000e+04
-6.060308593750000000e+04
-6.060872656250000000e+04
-6.060975781250000000e+04
-6.060391406250000000e+04
-6.060227343750000000e+04
-6.060210937500000000e+04
-6.060360937500000000e+04
-6.060304296875000000e+04
-6.059655859375000000e+04
-6.059710937500000000e+04
-6.060200390625000000e+04
-6.059207421875000000e+04
-6.059565234375000000e+04
-6.059969921875000000e+04
-6.066206640625000000e+04
-6.065639453125000000e+04
-6.065013671875000000e+04
-6.064349609375000000e+04
-6.062880078125000000e+04
-6.063133984375000000e+04
-6.062366015625000000e+04
-6.062325000000000000e+04
-6.062669140625000000e+04
-6.062746875000000000e+04
-6.062520312500000000e+04
-6.063317968750000000e+04
-6.062709765625000000e+04
-6.062669921875000000e+04
-6.063041015625000000e+04
-6.063237500000000000e+04
-6.062461328125000000e+04
-6.062516406250000000e+04
-6.062074609375000000e+04
-6.062455468750000000e+04
-6.062221093750000000e+04
-6.061989453125000000e+04
-6.062014062500000000e+04
-6.062651953125000000e+04
-6.062411328125000000e+04
-6.066049218750000000e+04
-6.064680468750000000e+04
-6.064201562500000000e+04
-6.063319921875000000e+04
-6.062453125000000000e+04
-6.062573828125000000e+04
-6.062726562500000000e+04
-6.062917578125000000e+04
-6.062617968750000000e+04
-6.062722265625000000e+04
-6.062504687500000000e+04
-6.062116015625000000e+04
-6.062327343750000000e+04
-6.062701171875000000e+04
-6.062321093750000000e+04
-6.062618359375000000e+04
-6.062381250000000000e+04
-6.062623046875000000e+04
-6.062616015625000000e+04
-6.062679296875000000e+04
-6.062277343750000000e+04
-6.063072656250000000e+04
-6.069371093750000000e+04
-6.065880859375000000e+04
-6.065077343750000000e+04
-6.062366406250000000e+04
-6.061736718750000000e+04
-6.061318359375000000e+04
-6.061571093750000000e+04
-6.061555078125000000e+04
-6.060887109375000000e+04
-6.061330078125000000e+04
-6.061546093750000000e+04
-6.060713281250000000e+04
-6.060491406250000000e+04
-6.061251562500000000e+04
-6.060628515625000000e+04
-6.060295703125000000e+04
-6.061069531250000000e+04
-6.060125390625000000e+04
-6.060230859375000000e+04
-6.060856640625000000e+04
-6.065144921875000000e+04
-6.062187890625000000e+04
-6.062136718750000000e+04
-6.061884765625000000e+04
-6.061753515625000000e+04
-6.061953906250000000e+04
-6.062159765625000000e+04
-6.061637890625000000e+04
-6.062027343750000000e+04
-6.061703125000000000e+04
-6.061501953125000000e+04
-6.061512109375000000e+04
-6.061981250000000000e+04
-6.061962109375000000e+04
-6.061464062500000000e+04
-6.061599218750000000e+04
-6.061423046875000000e+04
-6.061259375000000000e+04
-6.060885546875000000e+04
-6.060880859375000000e+04
-6.061763671875000000e+04
-6.064539453125000000e+04
-6.063572656250000000e+04
-6.062524218750000000e+04
-6.062097265625000000e+04
-6.061283203125000000e+04
-6.059501171875000000e+04
-6.060009765625000000e+04
-6.059864062500000000e+04
-6.060275390625000000e+04
-6.060058593750000000e+04
-6.059550781250000000e+04
-6.059528125000000000e+04
-6.060116796875000000e+04
-6.060164062500000000e+04
-6.059184375000000000e+04
-6.059247265625000000e+04
-6.059849218750000000e+04
-6.059057421875000000e+04
-6.059064843750000000e+04
-6.059346875000000000e+04
-6.059022265625000000e+04
-6.059350390625000000e+04
-6.065445703125000000e+04
-6.063210156250000000e+04
-6.060359765625000000e+04
-6.060412109375000000e+04
-6.060586718750000000e+04
-6.060153515625000000e+04
-6.060449609375000000e+04
-6.060034375000000000e+04
-6.060315625000000000e+04
-6.060487109375000000e+04
-6.061156640625000000e+04
-6.060151953125000000e+04
-6.059773046875000000e+04
-6.060456640625000000e+04
-6.060410156250000000e+04
-6.060612890625000000e+04
-6.060021484375000000e+04
-6.060558984375000000e+04
-6.061082031250000000e+04
-6.059935546875000000e+04
-6.060419140625000000e+04
-6.060657421875000000e+04
-6.059726171875000000e+04
-6.059101562500000000e+04
-6.059323046875000000e+04
-6.059740625000000000e+04
-6.065587109375000000e+04
-6.064971093750000000e+04
-6.063262500000000000e+04
-6.062939062500000000e+04
-6.063349609375000000e+04
-6.062406250000000000e+04
-6.062386718750000000e+04
-6.062323046875000000e+04
-6.062955859375000000e+04
-6.062870312500000000e+04
-6.062623046875000000e+04
-6.062480468750000000e+04
-6.063002734375000000e+04
-6.062587500000000000e+04
-6.062511718750000000e+04
-6.062614453125000000e+04
-6.062932812500000000e+04
-6.062160546875000000e+04
-6.062711718750000000e+04
-6.062842578125000000e+04
-6.062115234375000000e+04
-6.062458203125000000e+04
-6.062600781250000000e+04
-6.062096484375000000e+04
-6.062294140625000000e+04
-6.064646875000000000e+04
-6.063422265625000000e+04
-6.062739453125000000e+04
-6.062857031250000000e+04
-6.063240625000000000e+04
-6.063103906250000000e+04
-6.062846875000000000e+04
-6.062827343750000000e+04
-6.062814062500000000e+04
-6.063007812500000000e+04
-6.062737500000000000e+04
-6.062979296875000000e+04
-6.062761718750000000e+04
-6.062459375000000000e+04
-6.062396875000000000e+04
-6.062723046875000000e+04
-6.062772656250000000e+04
-6.062860156250000000e+04
-6.062965625000000000e+04
-6.062799609375000000e+04
-6.063074218750000000e+04
-6.062554296875000000e+04
-6.069317968750000000e+04
-6.065258203125000000e+04
-6.063489843750000000e+04
-6.061528906250000000e+04
-6.061400781250000000e+04
-6.061054687500000000e+04
-6.060980859375000000e+04
-6.061287109375000000e+04
-6.061300000000000000e+04
-6.061074609375000000e+04
-6.061555468750000000e+04
-6.060814843750000000e+04
-6.061132421875000000e+04
-6.060703125000000000e+04
-6.060824609375000000e+04
-6.061012109375000000e+04
-6.060920312500000000e+04
-6.061028515625000000e+04
-6.061235156250000000e+04
-6.060935546875000000e+04
-6.060910937500000000e+04
-6.060748437500000000e+04
-6.065873437500000000e+04
-6.065025781250000000e+04
-6.063600000000000000e+04
-6.062265625000000000e+04
-6.061792968750000000e+04
-6.062137109375000000e+04
-6.062156640625000000e+04
-6.061027734375000000e+04
-6.061260546875000000e+04
-6.060701953125000000e+04
-6.061219921875000000e+04
-6.061712890625000000e+04
-6.061423046875000000e+04
-6.061807812500000000e+04
-6.061980859375000000e+04
-6.061689453125000000e+04
-6.061332812500000000e+04
-6.061902734375000000e+04
-6.061956640625000000e+04
-6.061593359375000000e+04
-6.061325781250000000e+04
-6.061326562500000000e+04
-6.061433593750000000e+04
-6.061810156250000000e+04
-6.061658593750000000e+04
-6.061498828125000000e+04
-6.061315234375000000e+04
-6.069317968750000000e+04
-6.063687500000000000e+04
-6.062725390625000000e+04
-6.062278906250000000e+04
-6.061307812500000000e+04
-6.060876562500000000e+04
-6.059791015625000000e+04
-6.059691796875000000e+04
-6.059764062500000000e+04
-6.059965234375000000e+04
-6.059303906250000000e+04
-6.059349609375000000e+04
-6.059207812500000000e+04
-6.058926171875000000e+04
-6.058975390625000000e+04
-6.059113671875000000e+04
-6.059316796875000000e+04
-6.058722656250000000e+04
-6.059005078125000000e+04
-6.059103125000000000e+04
-6.059655859375000000e+04
-6.059912500000000000e+04
-6.059391406250000000e+04
-6.059401953125000000e+04
-6.059889453125000000e+04
-6.064816796875000000e+04
-6.061745703125000000e+04
-6.060933984375000000e+04
-6.060271484375000000e+04
-6.060075781250000000e+04
-6.060083593750000000e+04
-6.059879687500000000e+04
-6.059864843750000000e+04
-6.060043359375000000e+04
-6.060072656250000000e+04
-6.059685546875000000e+04
-6.059787109375000000e+04
-6.060430468750000000e+04
-6.059523437500000000e+04
-6.059093359375000000e+04
-6.059355468750000000e+04
-6.058864453125000000e+04
-6.058787109375000000e+04
-6.058983593750000000e+04
-6.059290234375000000e+04
-6.058459375000000000e+04
-6.058045703125000000e+04
-6.066222265625000000e+04
-6.064220703125000000e+04
-6.063382031250000000e+04
-6.063335546875000000e+04
-6.063206250000000000e+04
-6.063328125000000000e+04
-6.062880468750000000e+04
-6.063355859375000000e+04
-6.062814453125000000e+04
-6.062791796875000000e+04
-6.062736718750000000e+04
-6.062123828125000000e+04
-6.062486718750000000e+04
-6.063095312500000000e+04
-6.062785156250000000e+04
-6.062500000000000000e+04
-6.062332031250000000e+04
-6.062169921875000000e+04
-6.062880859375000000e+04
-6.062933593750000000e+04
-6.062032031250000000e+04
-6.062223828125000000e+04
-6.062294921875000000e+04
-6.061822265625000000e+04
-6.061482031250000000e+04
-6.061914453125000000e+04
-6.062081250000000000e+04
-6.062704687500000000e+04
-6.066209375000000000e+04
-6.062580078125000000e+04
-6.063020703125000000e+04
-6.063576562500000000e+04
-6.063035156250000000e+04
-6.062373437500000000e+04
-6.062698828125000000e+04
-6.063119140625000000e+04
-6.062748046875000000e+04
-6.062182031250000000e+04
-6.063065234375000000e+04
-6.062245703125000000e+04
-6.061955468750000000e+04
-6.062117578125000000e+04
-6.062768359375000000e+04
-6.063123828125000000e+04
-6.063218359375000000e+04
-6.063161328125000000e+04
-6.062966015625000000e+04
-6.062698046875000000e+04
-6.062460937500000000e+04
-6.062512500000000000e+04
-6.069245312500000000e+04
-6.065789453125000000e+04
-6.064994531250000000e+04
-6.064218750000000000e+04
-6.062397265625000000e+04
-6.062092578125000000e+04
-6.061428125000000000e+04
-6.061292187500000000e+04
-6.060564062500000000e+04
-6.060739843750000000e+04
-6.061398828125000000e+04
-6.060683984375000000e+04
-6.060715625000000000e+04
-6.060953906250000000e+04
-6.060918750000000000e+04
-6.061190234375000000e+04
-6.061291406250000000e+04
-6.060789453125000000e+04
-6.060737500000000000e+04
-6.060774609375000000e+04
-6.060977343750000000e+04
-6.060808593750000000e+04
-6.060664062500000000e+04
-6.060989062500000000e+04
-6.061229296875000000e+04
-6.060621875000000000e+04
-6.069245312500000000e+04
-6.065851171875000000e+04
-6.065218359375000000e+04
-6.063881640625000000e+04
-6.063398828125000000e+04
-6.061638281250000000e+04
-6.061044531250000000e+04
-6.061646093750000000e+04
-6.061108593750000000e+04
-6.061390234375000000e+04
-6.061211718750000000e+04
-6.060544921875000000e+04
-6.060778125000000000e+04
-6.060983984375000000e+04
-6.061250781250000000e+04
-6.061362500000000000e+04
-6.060763671875000000e+04
-6.060658203125000000e+04
-6.060443359375000000e+04
-6.060562500000000000e+04
-6.060505468750000000e+04
-6.060437109375000000e+04
-6.060091015625000000e+04
-6.060508984375000000e+04
-6.062106640625000000e+04
-6.061651562500000000e+04
-6.060061328125000000e+04
-6.060471484375000000e+04
-6.060033593750000000e+04
-6.059642578125000000e+04
-6.060789453125000000e+04
-6.060703125000000000e+04
-6.060491015625000000e+04
-6.060377343750000000e+04
-6.059485156250000000e+04
-6.059879296875000000e+04
-6.060342187500000000e+04
-6.060275390625000000e+04
-6.060404296875000000e+04
-6.059833984375000000e+04
-6.059876171875000000e+04
-6.059913671875000000e+04
-6.059848046875000000e+04
-6.063863671875000000e+04
-6.061998046875000000e+04
-6.060128125000000000e+04
-6.060572656250000000e+04
-6.060788281250000000e+04
-6.060380078125000000e+04
-6.060305078125000000e+04
-6.060111718750000000e+04
-6.059046484375000000e+04
-6.059698437500000000e+04
-6.059691015625000000e+04
-6.059942187500000000e+04
-6.060086718750000000e+04
-6.059755859375000000e+04
-6.060467187500000000e+04
-6.059587500000000000e+04
-6.069468359375000000e+04
-6.064900390625000000e+04
-6.063954687500000000e+04
-6.063520703125000000e+04
-6.063031250000000000e+04
-6.062766796875000000e+04
-6.062770312500000000e+04
-6.062958984375000000e+04
-6.062447265625000000e+04
-6.062927734375000000e+04
-6.063135546875000000e+04
-6.062117968750000000e+04
-6.062838281250000000e+04
-6.062788281250000000e+04
-6.063217968750000000e+04
-6.063054687500000000e+04
-6.063053515625000000e+04
-6.062414843750000000e+04
-6.062264062500000000e+04
-6.062319140625000000e+04
-6.062858203125000000e+04
-6.063058593750000000e+04
-6.062830859375000000e+04
-6.062509375000000000e+04
-6.062373828125000000e+04
-6.062657031250000000e+04
-6.062303906250000000e+04
-6.062755468750000000e+04
-6.069468359375000000e+04
-6.063125781250000000e+04
-6.062491406250000000e+04
-6.062261718750000000e+04
-6.062426562500000000e+04
-6.062503515625000000e+04
-6.062815234375000000e+04
-6.063083593750000000e+04
-6.063557031250000000e+04
-6.062396875000000000e+04
-6.062852343750000000e+04
-6.062778906250000000e+04
-6.063014843750000000e+04
-6.062834765625000000e+04
-6.062918359375000000e+04
-6.062232812500000000e+04
-6.062820312500000000e+04
-6.062653515625000000e+04
-6.063080078125000000e+04
-6.062491406250000000e+04
-6.062955468750000000e+04
-6.063017968750000000e+04
-6.069468359375000000e+04
-6.064949218750000000e+04
-6.063549218750000000e+04
-6.062662500000000000e+04
-6.060938671875000000e+04
-6.061049218750000000e+04
-6.061348437500000000e+04
-6.060880859375000000e+04
-6.061112500000000000e+04
-6.060956250000000000e+04
-6.061375390625000000e+04
-6.061794921875000000e+04
-6.061269140625000000e+04
-6.061224609375000000e+04
-6.060764843750000000e+04
-6.061044531250000000e+04
-6.061662890625000000e+04
-6.061063671875000000e+04
-6.061286718750000000e+04
-6.061114843750000000e+04
-6.063816796875000000e+04
-6.062836718750000000e+04
-6.061764843750000000e+04
-6.061651171875000000e+04
-6.061514453125000000e+04
-6.061517578125000000e+04
-6.061425781250000000e+04
-6.061301562500000000e+04
-6.061216406250000000e+04
-6.061449609375000000e+04
-6.061518750000000000e+04
-6.061134375000000000e+04
-6.061112890625000000e+04
-6.061306250000000000e+04
-6.060867187500000000e+04
-6.060618750000000000e+04
-6.061660937500000000e+04
-6.061567578125000000e+04
-6.064769531250000000e+04
-6.061900781250000000e+04
-6.060957812500000000e+04
-6.060160156250000000e+04
-6.059753125000000000e+04
-6.059923046875000000e+04
-6.059614843750000000e+04
-6.058980859375000000e+04
-6.058367578125000000e+04
-6.058692578125000000e+04
-6.059052343750000000e+04
-6.059045312500000000e+04
-6.059164453125000000e+04
-6.059377343750000000e+04
-6.059232421875000000e+04
-6.059128125000000000e+04
-6.058946484375000000e+04
-6.058987890625000000e+04
-6.057976953125000000e+04
-6.058981250000000000e+04
-6.058878515625000000e+04
-6.059008984375000000e+04
-6.058735937500000000e+04
-6.058796875000000000e+04
-6.058752734375000000e+04
-6.065399609375000000e+04
-6.061102343750000000e+04
-6.059556250000000000e+04
-6.059946875000000000e+04
-6.060060937500000000e+04
-6.059839843750000000e+04
-6.059475000000000000e+04
-6.059680078125000000e+04
-6.059939062500000000e+04
-6.059635156250000000e+04
-6.059642578125000000e+04
-6.059962109375000000e+04
-6.060224218750000000e+04
-6.059739062500000000e+04
-6.060044921875000000e+04
-6.060167968750000000e+04
-6.060354687500000000e+04
-6.060050390625000000e+04
-6.059362109375000000e+04
-6.059350390625000000e+04
-6.069146875000000000e+04
-6.066037109375000000e+04
-6.065271484375000000e+04
-6.064897656250000000e+04
-6.064134375000000000e+04
-6.062766015625000000e+04
-6.062535937500000000e+04
-6.063125390625000000e+04
-6.062628515625000000e+04
-6.063093359375000000e+04
-6.063242968750000000e+04
-6.062968750000000000e+04
-6.063196484375000000e+04
-6.062601171875000000e+04
-6.062513281250000000e+04
-6.062531250000000000e+04
-6.062805859375000000e+04
-6.062245312500000000e+04
-6.062502343750000000e+04
-6.062655468750000000e+04
-6.062301562500000000e+04
-6.062556640625000000e+04
-6.062591406250000000e+04
-6.069146875000000000e+04
-6.066073437500000000e+04
-6.064685937500000000e+04
-6.064156250000000000e+04
-6.062552734375000000e+04
-6.062956250000000000e+04
-6.063012890625000000e+04
-6.062751562500000000e+04
-6.062717578125000000e+04
-6.062342578125000000e+04
-6.062675390625000000e+04
-6.062754296875000000e+04
-6.062485156250000000e+04
-6.061936328125000000e+04
-6.062302734375000000e+04
-6.062317187500000000e+04
-6.062540625000000000e+04
-6.061974609375000000e+04
-6.062343750000000000e+04
-6.062629296875000000e+04
-6.065114062500000000e+04
-6.063984765625000000e+04
-6.061670703125000000e+04
-6.061496484375000000e+04
-6.061283203125000000e+04
-6.061429296875000000e+04
-6.061913671875000000e+04
-6.061758203125000000e+04
-6.061403515625000000e+04
-6.061168359375000000e+04
-6.060729687500000000e+04
-6.061500000000000000e+04
-6.061394140625000000e+04
-6.061061328125000000e+04
-6.061212109375000000e+04
-6.060835546875000000e+04
-6.060698046875000000e+04
-6.061773437500000000e+04
-6.061414453125000000e+04
-6.065632812500000000e+04
-6.064407031250000000e+04
-6.062559375000000000e+04
-6.062207421875000000e+04
-6.062139453125000000e+04
-6.061907031250000000e+04
-6.061819531250000000e+04
-6.061210546875000000e+04
-6.060827343750000000e+04
-6.061233593750000000e+04
-6.061552734375000000e+04
-6.061167968750000000e+04
-6.060831250000000000e+04
-6.060746484375000000e+04
-6.061017578125000000e+04
-6.060812890625000000e+04
-6.060818359375000000e+04
-6.060437890625000000e+04
-6.060557031250000000e+04
-6.061644921875000000e+04
-6.060900781250000000e+04
-6.060925390625000000e+04
-6.060656250000000000e+04
-6.065208593750000000e+04
-6.064645312500000000e+04
-6.060878125000000000e+04
-6.060680468750000000e+04
-6.060700000000000000e+04
-6.059047265625000000e+04
-6.059314453125000000e+04
-6.058989453125000000e+04
-6.059320703125000000e+04
-6.059230859375000000e+04
-6.059472265625000000e+04
-6.058726171875000000e+04
-6.058835937500000000e+04
-6.058796093750000000e+04
-6.058297265625000000e+04
-6.058007812500000000e+04
-6.058496875000000000e+04
-6.058258203125000000e+04
-6.058615625000000000e+04
-6.058392187500000000e+04
-6.059051953125000000e+04
-6.058571875000000000e+04
-6.065280859375000000e+04
-6.064605078125000000e+04
-6.061835937500000000e+04
-6.060579687500000000e+04
-6.060514843750000000e+04
-6.060476171875000000e+04
-6.060855078125000000e+04
-6.061025390625000000e+04
-6.061386718750000000e+04
-6.060789843750000000e+04
-6.060294921875000000e+04
-6.060287890625000000e+04
-6.060351953125000000e+04
-6.060724218750000000e+04
-6.059955859375000000e+04
-6.059378125000000000e+04
-6.059908984375000000e+04
-6.060103125000000000e+04
-6.059631640625000000e+04
-6.059376562500000000e+04
-6.069343359375000000e+04
-6.066246093750000000e+04
-6.064438281250000000e+04
-6.063599609375000000e+04
-6.063325000000000000e+04
-6.062603906250000000e+04
-6.062575000000000000e+04
-6.062774218750000000e+04
-6.063189062500000000e+04
-6.063243750000000000e+04
-6.062425000000000000e+04
-6.062738281250000000e+04
-6.062668750000000000e+04
-6.062571093750000000e+04
-6.062533593750000000e+04
-6.062682421875000000e+04
-6.062533593750000000e+04
-6.062545312500000000e+04
-6.062704687500000000e+04
-6.063214062500000000e+04
-6.062287890625000000e+04
-6.062266796875000000e+04
-6.062308203125000000e+04
-6.062621875000000000e+04
-6.062648828125000000e+04
-6.062636328125000000e+04
-6.062560937500000000e+04
-6.062210156250000000e+04
-6.066342578125000000e+04
-6.063398046875000000e+04
-6.062672656250000000e+04
-6.062456250000000000e+04
-6.062597265625000000e+04
-6.062605078125000000e+04
-6.062819531250000000e+04
-6.062500000000000000e+04
-6.062798828125000000e+04
-6.062687500000000000e+04
-6.062183593750000000e+04
-6.062292578125000000e+04
-6.062314453125000000e+04
-6.062600000000000000e+04
-6.062326562500000000e+04
-6.062683203125000000e+04
-6.062046093750000000e+04
-6.062389453125000000e+04
-6.061954296875000000e+04
-6.061637109375000000e+04
-6.061982421875000000e+04
-6.062349218750000000e+04
-6.062138671875000000e+04
-6.062602343750000000e+04
-6.062591406250000000e+04
-6.062649218750000000e+04
-6.062532421875000000e+04
-6.065108984375000000e+04
-6.063861718750000000e+04
-6.062692578125000000e+04
-6.062246875000000000e+04
-6.061566406250000000e+04
-6.061275000000000000e+04
-6.061927734375000000e+04
-6.062011328125000000e+04
-6.062059765625000000e+04
-6.061791015625000000e+04
-6.061900390625000000e+04
-6.061705859375000000e+04
-6.061755859375000000e+04
-6.061247656250000000e+04
-6.061619921875000000e+04
-6.061508984375000000e+04
-6.061427343750000000e+04
-6.061227343750000000e+04
-6.060773828125000000e+04
-6.060946875000000000e+04
-6.061174609375000000e+04
-6.061451953125000000e+04
-6.061726953125000000e+04
-6.061528906250000000e+04
-6.060642968750000000e+04
-6.061078906250000000e+04
-6.061083593750000000e+04
-6.063909765625000000e+04
-6.063048437500000000e+04
-6.061454687500000000e+04
-6.061763281250000000e+04
-6.061739062500000000e+04
-6.061314843750000000e+04
-6.061312500000000000e+04
-6.060790234375000000e+04
-6.060622265625000000e+04
-6.060862890625000000e+04
-6.061331640625000000e+04
-6.060602734375000000e+04
-6.061046875000000000e+04
-6.061496093750000000e+04
-6.061082031250000000e+04
-6.060969140625000000e+04
-6.061020312500000000e+04
-6.060927734375000000e+04
-6.061170312500000000e+04
-6.060807421875000000e+04
-6.060876171875000000e+04
-6.061321484375000000e+04
-6.061348046875000000e+04
-6.061106250000000000e+04
-6.061210937500000000e+04
-6.069343359375000000e+04
-6.065331250000000000e+04
-6.063719140625000000e+04
-6.060796484375000000e+04
-6.060420703125000000e+04
-6.060552343750000000e+04
-6.060602343750000000e+04
-6.060043359375000000e+04
-6.060087890625000000e+04
-6.060025000000000000e+04
-6.059566406250000000e+04
-6.059855468750000000e+04
-6.059378906250000000e+04
-6.059892968750000000e+04
-6.060119531250000000e+04
-6.059415234375000000e+04
-6.059370703125000000e+04
-6.060205859375000000e+04
-6.059600781250000000e+04
-6.059522656250000000e+04
-6.061017187500000000e+04
-6.060724218750000000e+04
-6.060726562500000000e+04
-6.069343359375000000e+04
-6.061856640625000000e+04
-6.061137500000000000e+04
-6.060291796875000000e+04
-6.060032421875000000e+04
-6.060231640625000000e+04
-6.060931250000000000e+04
-6.060691015625000000e+04
-6.059551171875000000e+04
-6.059763281250000000e+04
-6.059671093750000000e+04
-6.059936718750000000e+04
-6.059627343750000000e+04
-6.060150390625000000e+04
-6.059476562500000000e+04
-6.059570703125000000e+04
-6.059574218750000000e+04
-6.059256250000000000e+04
-6.059095703125000000e+04
-6.059884375000000000e+04
-6.060415625000000000e+04
-6.059309375000000000e+04
-6.059907031250000000e+04
-6.065997265625000000e+04
-6.064725781250000000e+04
-6.063587109375000000e+04
-6.063278515625000000e+04
-6.062569140625000000e+04
-6.062274609375000000e+04
-6.061971875000000000e+04
-6.062175000000000000e+04
-6.062094921875000000e+04
-6.062111328125000000e+04
-6.062167968750000000e+04
-6.062766796875000000e+04
-6.061906640625000000e+04
-6.062212500000000000e+04
-6.062137109375000000e+04
-6.062184375000000000e+04
-6.062440234375000000e+04
-6.062174609375000000e+04
-6.062089843750000000e+04
-6.061904687500000000e+04
-6.062092578125000000e+04
-6.062152734375000000e+04
-6.065440234375000000e+04
-6.064787109375000000e+04
-6.064279296875000000e+04
-6.063292968750000000e+04
-6.063070703125000000e+04
-6.063028906250000000e+04
-6.062568750000000000e+04
-6.063310156250000000e+04
-6.062869921875000000e+04
-6.063087500000000000e+04
-6.062494921875000000e+04
-6.062753515625000000e+04
-6.062346093750000000e+04
-6.062755468750000000e+04
-6.062319921875000000e+04
-6.062354296875000000e+04
-6.062669921875000000e+04
-6.062538671875000000e+04
-6.062759375000000000e+04
-6.062517968750000000e+04
-6.062421484375000000e+04
-6.062083593750000000e+04
-6.062133593750000000e+04
-6.062535937500000000e+04
-6.062301953125000000e+04
-6.062558593750000000e+04
-6.062844531250000000e+04
-6.062828125000000000e+04
-6.062357421875000000e+04
-6.061940234375000000e+04
-6.061612890625000000e+04
-6.061610546875000000e+04
-6.061820703125000000e+04
-6.061648437500000000e+04
-6.061818359375000000e+04
-6.061700000000000000e+04
-6.061163281250000000e+04
-6.060990625000000000e+04
-6.061500000000000000e+04
-6.061884765625000000e+04
-6.061206250000000000e+04
-6.061165625000000000e+04
-6.061350781250000000e+04
-6.061381250000000000e+04
-6.061527734375000000e+04
-6.061669921875000000e+04
-6.060540625000000000e+04
-6.060890625000000000e+04
-6.061186718750000000e+04
-6.061323046875000000e+04
-6.064125000000000000e+04
-6.063341406250000000e+04
-6.062500781250000000e+04
-6.061866406250000000e+04
-6.061718750000000000e+04
-6.061252734375000000e+04
-6.061523828125000000e+04
-6.061293750000000000e+04
-6.060683593750000000e+04
-6.061360937500000000e+04
-6.061072265625000000e+04
-6.060946875000000000e+04
-6.061480468750000000e+04
-6.061037109375000000e+04
-6.060568359375000000e+04
-6.060924218750000000e+04
-6.060956640625000000e+04
-6.061051953125000000e+04
-6.061108203125000000e+04
-6.061105859375000000e+04
-6.060735156250000000e+04
-6.061231640625000000e+04
-6.061506640625000000e+04
-6.060607031250000000e+04
-6.060908203125000000e+04
-6.065259765625000000e+04
-6.063724218750000000e+04
-6.062197265625000000e+04
-6.061075390625000000e+04
-6.060711328125000000e+04
-6.059733984375000000e+04
-6.059485546875000000e+04
-6.059872656250000000e+04
-6.059280078125000000e+04
-6.059472656250000000e+04
-6.060097656250000000e+04
-6.060008593750000000e+04
-6.059564843750000000e+04
-6.059339062500000000e+04
-6.059834375000000000e+04
-6.059884765625000000e+04
-6.059729687500000000e+04
-6.059838281250000000e+04
-6.059404687500000000e+04
-6.059041406250000000e+04
-6.059317187500000000e+04
-6.059182031250000000e+04
-6.059296875000000000e+04
-6.059624609375000000e+04
-6.059453125000000000e+04
-6.065250781250000000e+04
-6.063668750000000000e+04
-6.062789062500000000e+04
-6.061040625000000000e+04
-6.060203125000000000e+04
-6.060398046875000000e+04
-6.060537109375000000e+04
-6.060154687500000000e+04
-6.059826953125000000e+04
-6.060870703125000000e+04
-6.060466796875000000e+04
-6.060293750000000000e+04
-6.060072656250000000e+04
-6.060511718750000000e+04
-6.060379687500000000e+04
-6.060101953125000000e+04
-6.060156250000000000e+04
-6.059903515625000000e+04
-6.059776171875000000e+04
-6.059844140625000000e+04
-6.060101171875000000e+04
-6.060421484375000000e+04
-6.060628906250000000e+04
-6.059595312500000000e+04
-6.059558593750000000e+04
-6.059508203125000000e+04
-6.066353515625000000e+04
-6.063037500000000000e+04
-6.062980078125000000e+04
-6.062487109375000000e+04
-6.062413281250000000e+04
-6.062894140625000000e+04
-6.062579687500000000e+04
-6.062009765625000000e+04
-6.062650390625000000e+04
-6.062305468750000000e+04
-6.062187890625000000e+04
-6.062521093750000000e+04
-6.062491796875000000e+04
-6.062034375000000000e+04
-6.066136718750000000e+04
-6.065655468750000000e+04
-6.064437890625000000e+04
-6.062562890625000000e+04
-6.062470312500000000e+04
-6.062892187500000000e+04
-6.062600781250000000e+04
-6.063274609375000000e+04
-6.062962890625000000e+04
-6.062447265625000000e+04
-6.062858593750000000e+04
-6.062276953125000000e+04
-6.062874609375000000e+04
-6.063096484375000000e+04
-6.062769921875000000e+04
-6.062585156250000000e+04
-6.062776171875000000e+04
-6.062728125000000000e+04
-6.062979687500000000e+04
-6.062916015625000000e+04
-6.065939062500000000e+04
-6.065255468750000000e+04
-6.061448437500000000e+04
-6.061444140625000000e+04
-6.061550390625000000e+04
-6.061105859375000000e+04
-6.060612890625000000e+04
-6.061523046875000000e+04