-5.195642852783203125e+01 2.081212615966796875e+01 1.694603919982910156e+00 2.081212615966796875e+01 -5.068949508666992188e+01 1.514120769500732422e+01 1.694603919982910156e+00 1.514120769500732422e+01 -1.338021183013916016e+01
-1.925272369384765625e+01 1.801361465454101562e+01 -9.585912704467773438e+00 1.801361465454101562e+01 -5.834992218017578125e+01 -8.150668144226074219e+00 -9.585912704467773438e+00 -8.150668144226074219e+00 -2.937383270263671875e+01
-3.405288696289062500e+01 1.777837872505187988e+00 -2.022897529602050781e+01 1.777837872505187988e+00 -7.051623535156250000e+01 5.520878314971923828e+00 -2.022897529602050781e+01 5.520878314971923828e+00 -3.498525619506835938e+01
-5.178027725219726562e+01 -6.309762597084045410e-01 5.071683526039123535e-01 -6.309762597084045410e-01 -1.435578918457031250e+01 -1.737957000732421875e+00 5.071683526039123535e-01 -1.737957000732421875e+00 -2.219643974304199219e+01
-2.551732254028320312e+01 -8.356243133544921875e+00 -3.367158889770507812e+00 -8.356243133544921875e+00 -3.808412551879882812e+01 -2.436160802841186523e+00 -3.367158889770507812e+00 -2.436160802841186523e+00 -3.916185379028320312e+01
-5.097366333007812500e+01 1.626369118690490723e+00 -1.444739437103271484e+01 1.626369118690490723e+00 -3.180368804931640625e+01 -1.616587448120117188e+01 -1.444739437103271484e+01 -1.616587448120117188e+01 -2.494761657714843750e+01
-8.987316131591796875e+00 -9.354368209838867188e+00 1.087873172760009766e+01 -9.354368209838867188e+00 -2.041118049621582031e+01 2.567906761169433594e+01 1.087873172760009766e+01 2.567906761169433594e+01 -4.073211288452148438e+01
-3.070352745056152344e+01 -1.524068450927734375e+01 -1.488199424743652344e+01 -1.524068450927734375e+01 -1.452163410186767578e+01 -4.743589162826538086e-01 -1.488199424743652344e+01 -4.743589162826538086e-01 -9.558215141296386719e+00
-2.825020980834960938e+01 8.043715476989746094e+00 -1.082785034179687500e+01 8.043715476989746094e+00 -2.978001213073730469e+01 2.254361724853515625e+01 -1.082785034179687500e+01 2.254361724853515625e+01 -3.352521896362304688e+01
2.359120559692382812e+01 1.867237091064453125e+01 3.226961851119995117e+00 1.867237091064453125e+01 -6.412727355957031250e+00 -8.876300811767578125e+00 3.226961851119995117e+00 -8.876300811767578125e+00 -4.497701263427734375e+01
-5.646894836425781250e+01 -1.692454338073730469e+01 -2.824668645858764648e+00 -1.692454338073730469e+01 -3.914059829711914062e+01 7.676732063293457031e+00 -2.824668645858764648e+00 7.676732063293457031e+00 -2.446332550048828125e+01
-3.434976959228515625e+01 -1.694819569587707520e+00 1.373502731323242188e+01 -1.694819569587707520e+00 1.482585620880126953e+01 -7.549598217010498047e+00 1.373502731323242188e+01 -7.549598217010498047e+00 -3.182496070861816406e+00
-3.840835952758789062e+01 -1.524180889129638672e+01 2.175967693328857422e+00 -1.524180889129638672e+01 -4.065335083007812500e+01 1.008112812042236328e+01 2.175967693328857422e+00 1.008112812042236328e+01 -1.226781845092773438e+01
-7.038883972167968750e+01 5.301629066467285156e+00 7.587680816650390625e+00 5.301629066467285156e+00 -2.273522377014160156e+01 -1.792007637023925781e+01 7.587680816650390625e+00 -1.792007637023925781e+01 -2.364881515502929688e+01
-2.399983596801757812e+01 8.688016891479492188e+00 4.952568054199218750e+00 8.688016891479492188e+00 -4.548678970336914062e+01 1.007357025146484375e+01 4.952568054199218750e+00 1.007357025146484375e+01 -3.678609085083007812e+01
-2.294173812866210938e+01 1.021377182006835938e+01 -2.476080656051635742e+00 1.021377182006835938e+01 -2.375136756896972656e+01 -3.674777507781982422e+00 -2.476080656051635742e+00 -3.674777507781982422e+00 -3.516770172119140625e+01
-1.763659286499023438e+01 -2.433093786239624023e+00 -1.528407955169677734e+01 -2.433093786239624023e+00 -3.782588958740234375e+01 3.153107881546020508e+00 -1.528407955169677734e+01 3.153107881546020508e+00 2.343280220031738281e+01
-5.239176177978515625e+01 2.157301330566406250e+01 2.177462577819824219e+01 2.157301330566406250e+01 -5.274016571044921875e+01 -1.717832183837890625e+01 2.177462577819824219e+01 -1.717832183837890625e+01 -3.376035690307617188e+01
-4.613770294189453125e+01 1.843815422058105469e+01 -2.714085769653320312e+01 1.843815422058105469e+01 -2.176672935485839844e+01 -3.185752868652343750e+00 -2.714085769653320312e+01 -3.185752868652343750e+00 -5.160326766967773438e+01
-5.668334960937500000e+01 -8.610613822937011719e+00 1.123581600189208984e+01 -8.610613822937011719e+00 -1.888648033142089844e+01 1.380602836608886719e+00 1.123581600189208984e+01 1.380602836608886719e+00 -2.126064300537109375e+01
-1.809896278381347656e+01 1.575829982757568359e+01 1.271414661407470703e+01 1.575829982757568359e+01 -2.231683349609375000e+01 1.729541397094726562e+01 1.271414661407470703e+01 1.729541397094726562e+01 -3.150334930419921875e+01
-4.449587631225585938e+01 -1.090258884429931641e+01 1.094303417205810547e+01 -1.090258884429931641e+01 -6.554920196533203125e+01 -6.695434093475341797e+00 1.094303417205810547e+01 -6.695434093475341797e+00 -1.234949970245361328e+01
-3.312360382080078125e+01 -6.798478126525878906e+00 1.536076450347900391e+01 -6.798478126525878906e+00 -4.222909927368164062e+01 1.185508918762207031e+01 1.536076450347900391e+01 1.185508918762207031e+01 -3.365655136108398438e+01
-3.622750473022460938e+01 -6.173710823059082031e+00 -5.410193920135498047e+00 -6.173710823059082031e+00 -3.276927566528320312e+01 -1.949812293052673340e+00 -5.410193920135498047e+00 -1.949812293052673340e+00 -5.186359405517578125e+01
-6.403322696685791016e+00 -1.018253326416015625e+01 -1.134911918640136719e+01 -1.018253326416015625e+01 -1.276838016510009766e+01 -6.112217903137207031e+00 -1.134911918640136719e+01 -6.112217903137207031e+00 -6.754188060760498047e+00
-3.468542861938476562e+01 4.057262420654296875e+00 -1.765094375610351562e+01 4.057262420654296875e+00 -4.875941085815429688e+01 7.781126499176025391e+00 -1.765094375610351562e+01 7.781126499176025391e+00 1.329956948757171631e-01
1.257172775268554688e+01 -6.752818107604980469e+00 2.823551368713378906e+01 -6.752818107604980469e+00 -8.659545898437500000e+00 -2.962908267974853516e+00 2.823551368713378906e+01 -2.962908267974853516e+00 -3.953511810302734375e+01
-2.659505081176757812e+01 -6.025310039520263672e+00 -1.909938621520996094e+01 -6.025310039520263672e+00 -2.960536956787109375e+01 2.031212615966796875e+01 -1.909938621520996094e+01 2.031212615966796875e+01 -3.452379226684570312e+01
-4.813577651977539062e+01 -1.766409277915954590e-01 -9.536861419677734375e+00 -1.766409277915954590e-01 -1.051168727874755859e+01 1.693322807550430298e-01 -9.536861419677734375e+00 1.693322807550430298e-01 -2.046144866943359375e+01
-3.859058380126953125e+01 2.552167129516601562e+01 1.133323287963867188e+01 2.552167129516601562e+01 -2.565100479125976562e+01 -7.485264301300048828e+00 1.133323287963867188e+01 -7.485264301300048828e+00 -2.515998649597167969e+01
-2.544890642166137695e+00 1.718312644958496094e+01 -2.146590423583984375e+01 1.718312644958496094e+01 -3.062443923950195312e+01 -1.108624267578125000e+01 -2.146590423583984375e+01 -1.108624267578125000e+01 -2.345527076721191406e+01
-4.348576545715332031e+00 6.226183891296386719e+00 -8.883729934692382812e+00 6.226183891296386719e+00 -1.378601551055908203e+01 -7.442389965057373047e+00 -8.883729934692382812e+00 -7.442389965057373047e+00 -1.995519447326660156e+01
-2.840374565124511719e+01 -7.060696125030517578e+00 1.299026012420654297e+00 -7.060696125030517578e+00 -4.992283821105957031e+00 -8.239988684654235840e-01 1.299026012420654297e+00 -8.239988684654235840e-01 -2.565959548950195312e+01
-3.670703887939453125e+01 -1.148458003997802734e+01 -1.948171997070312500e+01 -1.148458003997802734e+01 -1.955887222290039062e+01 -6.061991214752197266e+00 -1.948171997070312500e+01 -6.061991214752197266e+00 -2.422913169860839844e+01
-4.227690398693084717e-02 1.863045692443847656e+01 1.848907321691513062e-01 1.863045692443847656e+01 -4.091518783569335938e+01 1.008025741577148438e+01 1.848907321691513062e-01 1.008025741577148438e+01 -1.188549995422363281e+01
-2.128693389892578125e+01 -6.133212089538574219e+00 3.026122570037841797e+00 -6.133212089538574219e+00 -3.253033065795898438e+01 2.534889936447143555e+00 3.026122570037841797e+00 2.534889936447143555e+00 -3.379679489135742188e+01
-3.620159530639648438e+01 6.836492061614990234e+00 1.342346477508544922e+01 6.836492061614990234e+00 -4.367808914184570312e+01 -1.117179965972900391e+01 1.342346477508544922e+01 -1.117179965972900391e+01 1.848938941955566406e+01
-3.036855888366699219e+01 1.755833625793457031e+01 -1.681247901916503906e+01 1.755833625793457031e+01 -4.432759475708007812e+01 -6.628303527832031250e+00 -1.681247901916503906e+01 -6.628303527832031250e+00 -4.535472106933593750e+01
-9.480201721191406250e+00 -5.915535926818847656e+00 1.818964195251464844e+01 -5.915535926818847656e+00 -1.817573356628417969e+01 1.880093455314636230e+00 1.818964195251464844e+01 1.880093455314636230e+00 -2.625015640258789062e+01
-3.973019027709960938e+01 1.269997882843017578e+01 6.218889713287353516e+00 1.269997882843017578e+01 -5.062721729278564453e+00 -1.993289440870285034e-01 6.218889713287353516e+00 -1.993289440870285034e-01 -1.964094924926757812e+01
-5.157661819458007812e+01 -6.063423156738281250e+00 -3.369107723236083984e+00 -6.063423156738281250e+00 -5.103966903686523438e+01 6.802363872528076172e+00 -3.369107723236083984e+00 6.802363872528076172e+00 -5.254137420654296875e+01
-4.599162673950195312e+01 1.599009704589843750e+01 1.110547256469726562e+01 1.599009704589843750e+01 -2.544586181640625000e+01 1.813754081726074219e+01 1.110547256469726562e+01 1.813754081726074219e+01 8.498192787170410156e+00
3.863044977188110352e+00 7.259203910827636719e+00 1.040328216552734375e+01 7.259203910827636719e+00 -6.321160316467285156e+00 -1.359439849853515625e+01 1.040328216552734375e+01 -1.359439849853515625e+01 -3.320076370239257812e+01
-4.455156326293945312e+01 -6.481821537017822266e-01 -6.800948143005371094e+00 -6.481821537017822266e-01 -7.809950828552246094e+00 -5.182280063629150391e+00 -6.800948143005371094e+00 -5.182280063629150391e+00 -2.817411041259765625e+01
7.960628032684326172e+00 6.965103626251220703e+00 2.086955308914184570e+00 6.965103626251220703e+00 -4.115016937255859375e+01 -2.366501569747924805e+00 2.086955308914184570e+00 -2.366501569747924805e+00 -2.149478530883789062e+01
-2.614629745483398438e+01 -8.808239936828613281e+00 -5.513717979192733765e-02 -8.808239936828613281e+00 -3.354463195800781250e+01 -9.518372535705566406e+00 -5.513717979192733765e-02 -9.518372535705566406e+00 -2.938734054565429688e+01
-3.718737792968750000e+01 -2.328156661987304688e+01 3.188321304321289062e+01 -2.328156661987304688e+01 -3.465593719482421875e+01 9.899277687072753906e+00 3.188321304321289062e+01 9.899277687072753906e+00 -2.596908187866210938e+01
-3.451801300048828125e+01 1.500539332628250122e-01 1.340702438354492188e+01 1.500539332628250122e-01 -2.311873054504394531e+01 -6.991625785827636719e+00 1.340702438354492188e+01 -6.991625785827636719e+00 -1.227644157409667969e+01
-1.673689651489257812e+01 2.269277572631835938e+01 1.083538755774497986e-01 2.269277572631835938e+01 -3.084014511108398438e+01 -1.006309413909912109e+01 1.083538755774497986e-01 -1.006309413909912109e+01 -5.647586822509765625e+01
6.532365417480468750e+01 1.758470153808593750e+01 1.558926010131835938e+01 1.758470153808593750e+01 6.030271148681640625e+01 2.250943756103515625e+01 1.558926010131835938e+01 2.250943756103515625e+01 9.914144134521484375e+01
-4.692179489135742188e+01 2.615131378173828125e+00 -2.087159395217895508e+00 2.615131378173828125e+00 -3.761806869506835938e+01 -1.607063102722167969e+01 -2.087159395217895508e+00 -1.607063102722167969e+01 -3.145823287963867188e+01
-1.384898757934570312e+01 2.128869438171386719e+01 -8.971905112266540527e-01 2.128869438171386719e+01 -2.465534400939941406e+01 2.228528404235839844e+01 -8.971905112266540527e-01 2.228528404235839844e+01 -3.884295654296875000e+01
-4.622492980957031250e+01 1.137688159942626953e+00 7.919409751892089844e+00 1.137688159942626953e+00 -2.886248970031738281e+01 9.325368404388427734e-01 7.919409751892089844e+00 9.325368404388427734e-01 -2.845161437988281250e+01
-4.499221420288085938e+01 1.006200313568115234e+01 1.471121460199356079e-01 1.006200313568115234e+01 -1.395295238494873047e+01 -2.037900209426879883e+00 1.471121460199356079e-01 -2.037900209426879883e+00 -3.817677688598632812e+01
-1.218684577941894531e+01 6.246122360229492188e+00 7.313510417938232422e+00 6.246122360229492188e+00 1.020600032806396484e+01 7.672203540802001953e+00 7.313510417938232422e+00 7.672203540802001953e+00 -5.633765029907226562e+01
-7.030861854553222656e+00 -6.484305858612060547e+00 -1.940506553649902344e+01 -6.484305858612060547e+00 -8.343931198120117188e+00 -3.434138059616088867e+00 -1.940506553649902344e+01 -3.434138059616088867e+00 -6.474204063415527344e+00
-4.072528457641601562e+01 -3.410607576370239258e+00 -1.639858818054199219e+01 -3.410607576370239258e+00 -6.386344909667968750e+01 -2.052762222290039062e+01 -1.639858818054199219e+01 -2.052762222290039062e+01 -3.041254425048828125e+01
-2.524915313720703125e+01 -5.705148220062255859e+00 -2.261974143981933594e+01 -5.705148220062255859e+00 -5.595623779296875000e+01 7.786396145820617676e-01 -2.261974143981933594e+01 7.786396145820617676e-01 -6.749964141845703125e+01
-2.268791770935058594e+01 -9.655351042747497559e-01 2.001955413818359375e+01 -9.655351042747497559e-01 -1.313242149353027344e+01 1.396090984344482422e+01 2.001955413818359375e+01 1.396090984344482422e+01 9.519682884216308594e+00
-3.817102813720703125e+01 1.581478404998779297e+01 -1.323233699798583984e+01 1.581478404998779297e+01 -4.569475173950195312e+01 1.449730205535888672e+01 -1.323233699798583984e+01 1.449730205535888672e+01 -4.194331359863281250e+01
-1.580053234100341797e+01 2.201628875732421875e+01 1.048452615737915039e+00 2.201628875732421875e+01 -5.056812286376953125e+00 -1.177779865264892578e+01 1.048452615737915039e+00 -1.177779865264892578e+01 1.527980041503906250e+01
-3.750406265258789062e+01 -3.734241008758544922e+00 -4.370541870594024658e-01 -3.734241008758544922e+00 -7.834706878662109375e+01 7.573969841003417969e+00 -4.370541870594024658e-01 7.573969841003417969e+00 -3.449309158325195312e+01
-5.503136157989501953e+00 2.952134847640991211e+00 -1.061904621124267578e+01 2.952134847640991211e+00 -3.996778106689453125e+01 -5.027333259582519531e+00 -1.061904621124267578e+01 -5.027333259582519531e+00 -3.539249038696289062e+01
-3.124803161621093750e+01 6.763919830322265625e+00 -2.857686424255371094e+01 6.763919830322265625e+00 -2.078217697143554688e+01 -4.336923599243164062e+00 -2.857686424255371094e+01 -4.336923599243164062e+00 -2.658920860290527344e+01
-3.774727630615234375e+01 1.063533782958984375e+01 2.231266403198242188e+01 1.063533782958984375e+01 -3.910932159423828125e+01 -1.826774024963378906e+01 2.231266403198242188e+01 -1.826774024963378906e+01 -2.263817405700683594e+01
-9.462720870971679688e+00 1.287161540985107422e+01 -8.346598625183105469e+00 1.287161540985107422e+01 -3.350933456420898438e+01 1.403356671333312988e+00 -8.346598625183105469e+00 1.403356671333312988e+00 -9.462813377380371094e+00
-4.497195053100585938e+01 -7.075736999511718750e+00 -7.701267719268798828e+00 -7.075736999511718750e+00 -2.861498641967773438e+01 9.707993268966674805e-01 -7.701267719268798828e+00 9.707993268966674805e-01 -3.730883407592773438e+01
-1.338391590118408203e+01 7.414807319641113281e+00 -1.039448833465576172e+01 7.414807319641113281e+00 4.105037450790405273e-01 1.153316879272460938e+01 -1.039448833465576172e+01 1.153316879272460938e+01 -4.148954868316650391e+00
-2.024192428588867188e+01 -9.318631172180175781e+00 2.812168359756469727e+00 -9.318631172180175781e+00 -4.823106384277343750e+01 -1.275982284545898438e+01 2.812168359756469727e+00 -1.275982284545898438e+01 -2.598859214782714844e+01
-6.273303985595703125e+01 -1.455574383726343513e-04 -2.003216171264648438e+01 -1.455574383726343513e-04 -4.064991760253906250e+01 1.233668613433837891e+01 -2.003216171264648438e+01 1.233668613433837891e+01 -4.727661895751953125e+01
-1.160392475128173828e+01 -4.460756778717041016e+00 -1.708368492126464844e+01 -4.460756778717041016e+00 -1.564783477783203125e+01 -8.719313621520996094e+00 -1.708368492126464844e+01 -8.719313621520996094e+00 -4.992021179199218750e+01
6.532365417480468750e+01 1.758470153808593750e+01 1.558926010131835938e+01 1.758470153808593750e+01 6.030271148681640625e+01 2.250943756103515625e+01 1.558926010131835938e+01 2.250943756103515625e+01 9.914144134521484375e+01
-2.474628829956054688e+01 1.008337020874023438e+01 -7.277969837188720703e+00 1.008337020874023438e+01 -5.496564865112304688e+01 3.941574573516845703e+00 -7.277969837188720703e+00 3.941574573516845703e+00 -1.596096324920654297e+01
-4.351020050048828125e+01 9.670383453369140625e+00 -1.805028915405273438e+01 9.670383453369140625e+00 -4.101364898681640625e+01 1.278690719604492188e+01 -1.805028915405273438e+01 1.278690719604492188e+01 -4.641808319091796875e+01
-3.989523315429687500e+01 2.653298377990722656e+01 5.845617651939392090e-01 2.653298377990722656e+01 -4.459523010253906250e+01 1.661174774169921875e+01 5.845617651939392090e-01 1.661174774169921875e+01 -3.033417320251464844e+01
-4.455897903442382812e+01 -1.030104637145996094e+01 -2.551206350326538086e+00 -1.030104637145996094e+01 -7.522308349609375000e+01 -2.647841072082519531e+01 -2.551206350326538086e+00 -2.647841072082519531e+01 -5.052562332153320312e+01
-3.429675674438476562e+01 -2.045459175109863281e+01 -1.543399143218994141e+01 -2.045459175109863281e+01 -4.098182678222656250e+01 1.159468173980712891e+01 -1.543399143218994141e+01 1.159468173980712891e+01 -6.058642959594726562e+01
-2.765569877624511719e+01 4.167019367218017578e+00 5.933057665824890137e-01 4.167019367218017578e+00 -2.876408767700195312e+01 -1.949071693420410156e+01 5.933057665824890137e-01 -1.949071693420410156e+01 -1.216612625122070312e+01
-5.170408248901367188e+01 2.095720529556274414e+00 6.385739326477050781e+00 2.095720529556274414e+00 -9.717440605163574219e+00 9.856302261352539062e+00 6.385739326477050781e+00 9.856302261352539062e+00 -6.530724334716796875e+01
-1.477708148956298828e+01 1.077916049957275391e+01 -6.141035556793212891e+00 1.077916049957275391e+01 1.481909179687500000e+01 2.207772445678710938e+01 -6.141035556793212891e+00 2.207772445678710938e+01 -1.531850814819335938e+01
-2.797796630859375000e+01 2.048968315124511719e+01 2.381814718246459961e+00 2.048968315124511719e+01 -6.138369560241699219e+00 -1.197225093841552734e+00 2.381814718246459961e+00 -1.197225093841552734e+00 -5.180122756958007812e+01
-3.895055389404296875e+01 -1.018362331390380859e+01 1.424863815307617188e+01 -1.018362331390380859e+01 -4.266269302368164062e+01 6.889698505401611328e+00 1.424863815307617188e+01 6.889698505401611328e+00 -2.596721267700195312e+01
-4.057794189453125000e+01 8.370323181152343750e+00 -7.492647171020507812e-01 8.370323181152343750e+00 -5.058101272583007812e+01 -6.780569076538085938e+00 -7.492647171020507812e-01 -6.780569076538085938e+00 -7.458796691894531250e+01
8.030536651611328125e+00 -5.076323032379150391e+00 -3.132971048355102539e+00 -5.076323032379150391e+00 -1.346295166015625000e+01 1.265378117561340332e+00 -3.132971048355102539e+00 1.265378117561340332e+00 -2.217235183715820312e+01
-2.225847053527832031e+01 -1.330657577514648438e+01 1.451796293258666992e+00 -1.330657577514648438e+01 -3.172564697265625000e+01 6.731323242187500000e+00 1.451796293258666992e+00 6.731323242187500000e+00 -3.152477455139160156e+01
-2.142711067199707031e+01 2.879722595214843750e+00 1.406154632568359375e+01 2.879722595214843750e+00 -2.907578659057617188e+01 -1.157313346862792969e+01 1.406154632568359375e+01 -1.157313346862792969e+01 -2.165098762512207031e+01
-3.039274787902832031e+01 2.654769706726074219e+01 -3.007012939453125000e+01 2.654769706726074219e+01 3.093660354614257812e+00 2.030546379089355469e+01 -3.007012939453125000e+01 2.030546379089355469e+01 -1.171156692504882812e+01
-2.298305511474609375e+01 -9.857297897338867188e+00 9.457202911376953125e+00 -9.857297897338867188e+00 -3.493860244750976562e+01 -3.266165256500244141e+00 9.457202911376953125e+00 -3.266165256500244141e+00 -5.559803771972656250e+01
-4.561408233642578125e+01 -2.096897315979003906e+01 1.268501663208007812e+01 -2.096897315979003906e+01 -2.983260536193847656e+01 1.206829166412353516e+01 1.268501663208007812e+01 1.206829166412353516e+01 -3.132016944885253906e+01
-1.756297349929809570e+00 -9.865627288818359375e+00 -1.790027236938476562e+01 -9.865627288818359375e+00 -3.978713989257812500e+01 2.459111022949218750e+01 -1.790027236938476562e+01 2.459111022949218750e+01 -2.058337593078613281e+01
-6.900462341308593750e+01 -1.381007575988769531e+01 1.724992179870605469e+01 -1.381007575988769531e+01 -6.183353042602539062e+01 -3.055269002914428711e+00 1.724992179870605469e+01 -3.055269002914428711e+00 -3.036332893371582031e+01
-2.274904727935791016e+00 5.710736274719238281e+00 -1.297353839874267578e+01 5.710736274719238281e+00 1.394882488250732422e+01 1.070668411254882812e+01 -1.297353839874267578e+01 1.070668411254882812e+01 1.544163107872009277e+00
-6.773580932617187500e+01 5.998250842094421387e-01 6.176243305206298828e+00 5.998250842094421387e-01 -4.076307678222656250e+01 -5.470134258270263672e+00 6.176243305206298828e+00 -5.470134258270263672e+00 -1.164596080780029297e+01
-2.712917518615722656e+01 8.153665542602539062e+00 -1.573557376861572266e+01 8.153665542602539062e+00 -8.715652465820312500e+00 -3.552722930908203125e+00 -1.573557376861572266e+01 -3.552722930908203125e+00 -4.958677673339843750e+01
4.061577320098876953e+00 1.278498023748397827e-01 -1.041814208030700684e+00 1.278498023748397827e-01 -1.857705307006835938e+01 8.618391036987304688e+00 -1.041814208030700684e+00 8.618391036987304688e+00 -1.896326828002929688e+01
-5.332614135742187500e+01 2.180110931396484375e+01 1.200081825256347656e+01 2.180110931396484375e+01 -2.501179504394531250e+01 -1.182037591934204102e+00 1.200081825256347656e+01 -1.182037591934204102e+00 -1.846140289306640625e+01
-5.246779251098632812e+01 2.592695426940917969e+01 -9.156761169433593750e+00 2.592695426940917969e+01 -5.449626159667968750e+01 4.405965328216552734e+00 -9.156761169433593750e+00 4.405965328216552734e+00 -3.734508132934570312e+01
-5.344351196289062500e+01 1.352357268333435059e+00 -7.935085296630859375e-01 1.352357268333435059e+00 -3.275872039794921875e+01 2.208163070678710938e+01 -7.935085296630859375e-01 2.208163070678710938e+01 -3.759751892089843750e+01
-3.584513092041015625e+01 1.126765489578247070e+00 2.982171773910522461e+00 1.126765489578247070e+00 -5.689246368408203125e+01 2.947946071624755859e+00 2.982171773910522461e+00 2.947946071624755859e+00 -4.903884124755859375e+01
-1.979430007934570312e+01 1.997554588317871094e+01 -5.134395360946655273e-01 1.997554588317871094e+01 -2.549482154846191406e+01 4.199793338775634766e+00 -5.134395360946655273e-01 4.199793338775634766e+00 6.733639717102050781e+00
-6.757747650146484375e+01 -1.824332833290100098e+00 9.769774436950683594e+00 -1.824332833290100098e+00 -7.151819229125976562e+00 -3.788035631179809570e+00 9.769774436950683594e+00 -3.788035631179809570e+00 -4.529912948608398438e+01
-3.327866363525390625e+01 -1.103270053863525391e+00 -1.457078170776367188e+01 -1.103270053863525391e+00 -3.867065048217773438e+01 1.428677558898925781e+00 -1.457078170776367188e+01 1.428677558898925781e+00 -4.280310821533203125e+01
-5.390491867065429688e+01 -2.844743013381958008e+00 1.265621089935302734e+01 -2.844743013381958008e+00 -3.651100158691406250e+01 1.190447711944580078e+01 1.265621089935302734e+01 1.190447711944580078e+01 -9.311428070068359375e+00
-9.323530197143554688e+00 2.720941543579101562e+01 2.483191728591918945e+00 2.720941543579101562e+01 -6.417098999023437500e+01 -1.495061874389648438e+01 2.483191728591918945e+00 -1.495061874389648438e+01 -4.141143798828125000e+01
-3.157182312011718750e+01 1.785068130493164062e+01 2.374278068542480469e+00 1.785068130493164062e+01 -2.348943519592285156e+01 4.432301998138427734e+00 2.374278068542480469e+00 4.432301998138427734e+00 -3.894980621337890625e+01
-3.987889480590820312e+01 1.129308891296386719e+01 -9.000089645385742188e+00 1.129308891296386719e+01 -6.069763183593750000e+01 -3.962246656417846680e+00 -9.000089645385742188e+00 -3.962246656417846680e+00 -8.118800354003906250e+01
-3.686841964721679688e+01 3.490343689918518066e-01 9.719129562377929688e+00 3.490343689918518066e-01 -4.473322677612304688e+01 1.130165457725524902e+00 9.719129562377929688e+00 1.130165457725524902e+00 -2.352448654174804688e+01
-3.080442428588867188e+01 4.085331439971923828e+00 1.380840873718261719e+01 4.085331439971923828e+00 -4.170009613037109375e+01 -8.743621826171875000e+00 1.380840873718261719e+01 -8.743621826171875000e+00 -1.979541587829589844e+01
-7.767220306396484375e+01 -1.326407527923583984e+01 -1.126761627197265625e+01 -1.326407527923583984e+01 -3.821318435668945312e+01 -1.034191513061523438e+01 -1.126761627197265625e+01 -1.034191513061523438e+01 9.163143157958984375e+00
-5.323731613159179688e+01 1.845166778564453125e+01 -3.758059740066528320e+00 1.845166778564453125e+01 -5.714801788330078125e+01 9.303349494934082031e+00 -3.758059740066528320e+00 9.303349494934082031e+00 -4.350750350952148438e+01
-5.195386505126953125e+01 -1.204738140106201172e+00 2.431427717208862305e+00 -1.204738140106201172e+00 -4.545669174194335938e+01 8.043519973754882812e+00 2.431427717208862305e+00 8.043519973754882812e+00 -3.217057037353515625e+01
-6.127259445190429688e+01 1.274619102478027344e+01 -4.834989547729492188e+00 1.274619102478027344e+01 -4.934892272949218750e+01 -1.517008543014526367e+00 -4.834989547729492188e+00 -1.517008543014526367e+00 -2.738401412963867188e+01
-4.199853134155273438e+01 -1.353108119964599609e+01 -2.727068328857421875e+01 -1.353108119964599609e+01 -4.559986495971679688e+01 -5.085712075233459473e-01 -2.727068328857421875e+01 -5.085712075233459473e-01 -5.464174270629882812e+01
-2.811583709716796875e+01 -4.344602584838867188e+00 6.867288589477539062e+00 -4.344602584838867188e+00 -3.010088157653808594e+01 -6.783723831176757812e+00 6.867288589477539062e+00 -6.783723831176757812e+00 -6.970029449462890625e+01
-4.190474700927734375e+01 -5.335172414779663086e-01 -9.223396301269531250e+00 -5.335172414779663086e-01 -1.298857212066650391e+01 -4.899461269378662109e+00 -9.223396301269531250e+00 -4.899461269378662109e+00 -4.502044296264648438e+01
-1.384617233276367188e+01 5.334458351135253906e+00 -1.565771400928497314e-01 5.334458351135253906e+00 -5.575305938720703125e+01 1.953254699707031250e+01 -1.565771400928497314e-01 1.953254699707031250e+01 -8.309571075439453125e+01
-3.947444534301757812e+01 -2.678727340698242188e+01 -1.153902626037597656e+01 -2.678727340698242188e+01 -2.728692054748535156e+01 -2.804326772689819336e+00 -1.153902626037597656e+01 -2.804326772689819336e+00 -8.303485870361328125e+00
2.303842163085937500e+01 -9.473702430725097656e+00 -4.311609268188476562e+01 -9.473702430725097656e+00 -1.050416469573974609e+01 -2.943593025207519531e+00 -4.311609268188476562e+01 -2.943593025207519531e+00 -9.538983345031738281e+00
-4.940846252441406250e+01 1.870811581611633301e+00 4.435872077941894531e+00 1.870811581611633301e+00 -5.975108718872070312e+01 1.444981384277343750e+01 4.435872077941894531e+00 1.444981384277343750e+01 -5.487725448608398438e+01
-8.179315185546875000e+01 1.341189956665039062e+01 1.724202394485473633e+00 1.341189956665039062e+01 -6.129041671752929688e+01 -1.604650688171386719e+01 1.724202394485473633e+00 -1.604650688171386719e+01 -1.385799789428710938e+01
-3.200725173950195312e+01 -6.329623222351074219e+00 2.457778930664062500e+01 -6.329623222351074219e+00 -1.941641235351562500e+01 -1.103991317749023438e+01 2.457778930664062500e+01 -1.103991317749023438e+01 -4.876518249511718750e+01
-5.783412551879882812e+01 1.039133453369140625e+01 3.224855899810791016e+00 1.039133453369140625e+01 -2.125162124633789062e+01 -6.265135288238525391e+00 3.224855899810791016e+00 -6.265135288238525391e+00 -9.139459228515625000e+01
-6.067805862426757812e+01 5.789780139923095703e+00 -4.131235778331756592e-01 5.789780139923095703e+00 -5.050244903564453125e+01 1.835950851440429688e+01 -4.131235778331756592e-01 1.835950851440429688e+01 -3.150329971313476562e+01
-2.115224266052246094e+01 -1.925086677074432373e-01 -2.238245248794555664e+00 -1.925086677074432373e-01 -5.162436294555664062e+01 8.407464981079101562e+00 -2.238245248794555664e+00 8.407464981079101562e+00 9.933388710021972656e+00
-2.914857864379882812e+01 -2.066094398498535156e+00 3.254330158233642578e+00 -2.066094398498535156e+00 -8.414461135864257812e+00 3.171747207641601562e+00 3.254330158233642578e+00 3.171747207641601562e+00 -4.697010421752929688e+01
-2.397685813903808594e+01 2.976705133914947510e-01 -2.004540634155273438e+01 2.976705133914947510e-01 -5.983544540405273438e+01 -2.159785652160644531e+01 -2.004540634155273438e+01 -2.159785652160644531e+01 -3.214848709106445312e+01
-8.671113586425781250e+01 3.262820005416870117e+00 -1.318159008026123047e+01 3.262820005416870117e+00 -2.735046577453613281e+01 -5.766305446624755859e+00 -1.318159008026123047e+01 -5.766305446624755859e+00 -5.668075180053710938e+01
-1.095524406433105469e+01 1.774376749992370605e+00 1.073682084679603577e-01 1.774376749992370605e+00 -6.221141052246093750e+01 1.981495475769042969e+01 1.073682084679603577e-01 1.981495475769042969e+01 -5.413669204711914062e+01
-4.878937911987304688e+01 1.613554191589355469e+01 8.531137466430664062e+00 1.613554191589355469e+01 -6.830786895751953125e+01 -2.048475980758666992e+00 8.531137466430664062e+00 -2.048475980758666992e+00 -4.637157058715820312e+01
-6.183235549926757812e+01 -3.750515699386596680e+00 -6.284012317657470703e+00 -3.750515699386596680e+00 -3.482416152954101562e+01 -1.277178668975830078e+01 -6.284012317657470703e+00 -1.277178668975830078e+01 -2.252937316894531250e+01