1.956800079345703125e+01 0.000000000000000000e+00 0.000000000000000000e+00 3.440000116825103760e-01 1.988100051879882812e+01 0.000000000000000000e+00 4.000000059604644775e-01 6.300000101327896118e-02 1.947200012207031250e+01
1.983499908447265625e+01 0.000000000000000000e+00 0.000000000000000000e+00 -2.389999926090240479e-01 2.028700065612792969e+01 0.000000000000000000e+00 1.920000016689300537e-01 4.000000059604644775e-01 2.017700004577636719e+01
1.979299926757812500e+01 0.000000000000000000e+00 0.000000000000000000e+00 4.679999947547912598e-01 1.895299911499023438e+01 0.000000000000000000e+00 9.099999815225601196e-02 1.600000075995922089e-02 1.942099952697753906e+01
1.948399925231933594e+01 0.000000000000000000e+00 0.000000000000000000e+00 -2.949999868869781494e-01 1.913899993896484375e+01 0.000000000000000000e+00 -1.019999980926513672e-01 -8.699999749660491943e-02 1.935799980163574219e+01
1.947100067138671875e+01 0.000000000000000000e+00 0.000000000000000000e+00 -2.339999973773956299e-01 1.991500091552734375e+01 0.000000000000000000e+00 1.889999955892562866e-01 3.930000066757202148e-01 1.980699920654296875e+01
2.005400085449218750e+01 0.000000000000000000e+00 0.000000000000000000e+00 1.539999991655349731e-01 1.921400070190429688e+01 0.000000000000000000e+00 3.619999885559082031e-01 -3.970000147819519043e-01 1.949900054931640625e+01
2.040900039672851562e+01 0.000000000000000000e+00 0.000000000000000000e+00 1.570000052452087402e-01 1.955400085449218750e+01 0.000000000000000000e+00 3.689999878406524658e-01 -4.040000140666961670e-01 1.984399986267089844e+01
1.911599922180175781e+01 0.000000000000000000e+00 0.000000000000000000e+00 -1.659999936819076538e-01 1.972299957275390625e+01 0.000000000000000000e+00 8.399999886751174927e-02 1.019999980926513672e-01 1.970199966430664062e+01
1.962199974060058594e+01 0.000000000000000000e+00 0.000000000000000000e+00 -2.360000014305114746e-01 2.006900024414062500e+01 0.000000000000000000e+00 1.899999976158142090e-01 3.959999978542327881e-01 1.995999908447265625e+01
2.005900001525878906e+01 0.000000000000000000e+00 0.000000000000000000e+00 1.539999991655349731e-01 1.921899986267089844e+01 0.000000000000000000e+00 3.619999885559082031e-01 -3.970000147819519043e-01 1.950399971008300781e+01
1.865600013732910156e+01 0.000000000000000000e+00 0.000000000000000000e+00 4.359999895095825195e-01 1.873900032043457031e+01 0.000000000000000000e+00 -4.800000041723251343e-02 1.120000034570693970e-01 1.882500076293945312e+01
2.001099967956542969e+01 0.000000000000000000e+00 0.000000000000000000e+00 0.000000000000000000e+00 2.001099967956542969e+01 0.000000000000000000e+00 0.000000000000000000e+00 0.000000000000000000e+00 2.001099967956542969e+01
1.852499961853027344e+01 0.000000000000000000e+00 0.000000000000000000e+00 -1.609999984502792358e-01 1.911300086975097656e+01 0.000000000000000000e+00 8.100000023841857910e-02 9.899999946355819702e-02 1.909300041198730469e+01
1.943000030517578125e+01 0.000000000000000000e+00 0.000000000000000000e+00 3.549999892711639404e-01 1.943700027465820312e+01 0.000000000000000000e+00 -1.809999942779541016e-01 5.999999865889549255e-02 1.888400077819824219e+01
1.970299911499023438e+01 0.000000000000000000e+00 0.000000000000000000e+00 3.470000028610229492e-01 2.001799964904785156e+01 0.000000000000000000e+00 4.029999971389770508e-01 6.400000303983688354e-02 1.960700035095214844e+01
1.926399993896484375e+01 0.000000000000000000e+00 0.000000000000000000e+00 -1.669999957084655762e-01 1.987500000000000000e+01 0.000000000000000000e+00 8.399999886751174927e-02 1.030000001192092896e-01 1.985400009155273438e+01
1.982600021362304688e+01 0.000000000000000000e+00 0.000000000000000000e+00 -3.000000119209289551e-01 1.947500038146972656e+01 0.000000000000000000e+00 -1.040000021457672119e-01 -8.799999952316284180e-02 1.969799995422363281e+01
1.936100006103515625e+01 0.000000000000000000e+00 0.000000000000000000e+00 -3.000000026077032089e-03 2.011700057983398438e+01 0.000000000000000000e+00 -4.320000112056732178e-01 -2.949999868869781494e-01 1.933300018310546875e+01
1.949300003051757812e+01 0.000000000000000000e+00 0.000000000000000000e+00 -1.689999997615814209e-01 2.011100006103515625e+01 0.000000000000000000e+00 8.500000089406967163e-02 1.040000021457672119e-01 2.009000015258789062e+01
1.926300048828125000e+01 0.000000000000000000e+00 0.000000000000000000e+00 3.389999866485595703e-01 1.957099914550781250e+01 0.000000000000000000e+00 3.939999938011169434e-01 6.199999898672103882e-02 1.916900062561035156e+01
1.902199935913085938e+01 0.000000000000000000e+00 0.000000000000000000e+00 -2.290000021457672119e-01 1.945599937438964844e+01 0.000000000000000000e+00 1.840000003576278687e-01 3.840000033378601074e-01 1.935000038146972656e+01
1.953400039672851562e+01 0.000000000000000000e+00 0.000000000000000000e+00 0.000000000000000000e+00 1.953400039672851562e+01 0.000000000000000000e+00 0.000000000000000000e+00 0.000000000000000000e+00 1.953400039672851562e+01
2.033399963378906250e+01 0.000000000000000000e+00 0.000000000000000000e+00 -3.070000112056732178e-01 1.997400093078613281e+01 0.000000000000000000e+00 -1.070000007748603821e-01 -9.000000357627868652e-02 2.020199966430664062e+01
1.974699974060058594e+01 0.000000000000000000e+00 0.000000000000000000e+00 -2.380000054836273193e-01 2.019700050354003906e+01 0.000000000000000000e+00 1.909999996423721313e-01 3.980000019073486328e-01 2.008799934387207031e+01
1.965099906921386719e+01 0.000000000000000000e+00 0.000000000000000000e+00 -2.720000147819519043e-01 1.966799926757812500e+01 0.000000000000000000e+00 3.519999980926513672e-01 -3.400000035762786865e-01 1.952099990844726562e+01
1.944099998474121094e+01 0.000000000000000000e+00 0.000000000000000000e+00 -1.689999997615814209e-01 2.005699920654296875e+01 0.000000000000000000e+00 8.500000089406967163e-02 1.040000021457672119e-01 2.003700065612792969e+01
1.988100051879882812e+01 0.000000000000000000e+00 0.000000000000000000e+00 1.529999971389770508e-01 1.904899978637695312e+01 0.000000000000000000e+00 3.589999973773956299e-01 -3.939999938011169434e-01 1.933099937438964844e+01
1.865800094604492188e+01 0.000000000000000000e+00 0.000000000000000000e+00 -3.000000026077032089e-03 1.938699913024902344e+01 0.000000000000000000e+00 -4.169999957084655762e-01 -2.849999964237213135e-01 1.863100051879882812e+01
1.915900039672851562e+01 0.000000000000000000e+00 0.000000000000000000e+00 -2.649999856948852539e-01 1.917700004577636719e+01 0.000000000000000000e+00 3.429999947547912598e-01 -3.319999873638153076e-01 1.903300094604492188e+01
1.954899978637695312e+01 0.000000000000000000e+00 0.000000000000000000e+00 4.569999873638153076e-01 1.963699913024902344e+01 0.000000000000000000e+00 -5.099999904632568359e-02 1.169999986886978149e-01 1.972699928283691406e+01
1.995899963378906250e+01 0.000000000000000000e+00 0.000000000000000000e+00 3.510000109672546387e-01 2.027899932861328125e+01 0.000000000000000000e+00 4.079999923706054688e-01 6.499999761581420898e-02 1.986199951171875000e+01
1.905999946594238281e+01 0.000000000000000000e+00 0.000000000000000000e+00 3.350000083446502686e-01 1.936499977111816406e+01 0.000000000000000000e+00 3.889999985694885254e-01 6.199999898672103882e-02 1.896699905395507812e+01
1.889999961853027344e+01 0.000000000000000000e+00 0.000000000000000000e+00 3.319999873638153076e-01 1.920199966430664062e+01 0.000000000000000000e+00 3.860000073909759521e-01 6.100000068545341492e-02 1.880800056457519531e+01
1.988199996948242188e+01 0.000000000000000000e+00 0.000000000000000000e+00 -2.750000059604644775e-01 1.989999961853027344e+01 0.000000000000000000e+00 3.560000061988830566e-01 -3.440000116825103760e-01 1.975099945068359375e+01
1.962899971008300781e+01 0.000000000000000000e+00 0.000000000000000000e+00 -1.700000017881393433e-01 2.025099945068359375e+01 0.000000000000000000e+00 8.600000292062759399e-02 1.049999967217445374e-01 2.022999954223632812e+01
1.968400001525878906e+01 0.000000000000000000e+00 0.000000000000000000e+00 4.659999907016754150e-01 1.884900093078613281e+01 0.000000000000000000e+00 9.099999815225601196e-02 1.600000075995922089e-02 1.931399917602539062e+01
1.925000000000000000e+01 0.000000000000000000e+00 0.000000000000000000e+00 -1.669999957084655762e-01 1.986000061035156250e+01 0.000000000000000000e+00 8.399999886751174927e-02 1.030000001192092896e-01 1.984000015258789062e+01
1.931999969482421875e+01 0.000000000000000000e+00 0.000000000000000000e+00 3.400000035762786865e-01 1.962899971008300781e+01 0.000000000000000000e+00 3.950000107288360596e-01 6.300000101327896118e-02 1.922599983215332031e+01
1.940099906921386719e+01 0.000000000000000000e+00 0.000000000000000000e+00 3.409999907016754150e-01 1.971199989318847656e+01 0.000000000000000000e+00 3.959999978542327881e-01 6.300000101327896118e-02 1.930699920654296875e+01
1.951399993896484375e+01 0.000000000000000000e+00 0.000000000000000000e+00 3.429999947547912598e-01 1.982600021362304688e+01 0.000000000000000000e+00 3.989999890327453613e-01 6.300000101327896118e-02 1.941900062561035156e+01
1.946999931335449219e+01 0.000000000000000000e+00 0.000000000000000000e+00 -3.000000026077032089e-03 2.022999954223632812e+01 0.000000000000000000e+00 -4.350000023841857910e-01 -2.969999909400939941e-01 1.944199943542480469e+01
1.873999977111816406e+01 0.000000000000000000e+00 0.000000000000000000e+00 -2.259999960660934448e-01 1.916699981689453125e+01 0.000000000000000000e+00 1.819999963045120239e-01 3.779999911785125732e-01 1.906399917602539062e+01
1.967499923706054688e+01 0.000000000000000000e+00 0.000000000000000000e+00 1.509999930858612061e-01 1.885099983215332031e+01 0.000000000000000000e+00 3.549999892711639404e-01 -3.899999856948852539e-01 1.913100051879882812e+01
1.967499923706054688e+01 0.000000000000000000e+00 0.000000000000000000e+00 -3.000000026077032089e-03 2.044400024414062500e+01 0.000000000000000000e+00 -4.390000104904174805e-01 -3.000000119209289551e-01 1.964699935913085938e+01
1.948800086975097656e+01 0.000000000000000000e+00 0.000000000000000000e+00 -1.689999997615814209e-01 2.010600090026855469e+01 0.000000000000000000e+00 8.500000089406967163e-02 1.040000021457672119e-01 2.008499908447265625e+01
1.996500015258789062e+01 0.000000000000000000e+00 0.000000000000000000e+00 -3.019999861717224121e-01 1.961199951171875000e+01 0.000000000000000000e+00 -1.049999967217445374e-01 -8.900000154972076416e-02 1.983600044250488281e+01
1.982699966430664062e+01 0.000000000000000000e+00 0.000000000000000000e+00 1.519999951124191284e-01 1.899699974060058594e+01 0.000000000000000000e+00 3.580000102519989014e-01 -3.930000066757202148e-01 1.927799987792968750e+01
1.911499977111816406e+01 0.000000000000000000e+00 0.000000000000000000e+00 -2.639999985694885254e-01 1.913199996948242188e+01 0.000000000000000000e+00 3.420000076293945312e-01 -3.310000002384185791e-01 1.898900032043457031e+01
1.990500068664550781e+01 0.000000000000000000e+00 0.000000000000000000e+00 4.650000035762786865e-01 1.999399948120117188e+01 0.000000000000000000e+00 -5.200000107288360596e-02 1.199999973177909851e-01 2.008600044250488281e+01
1.944700050354003906e+01 0.000000000000000000e+00 0.000000000000000000e+00 -2.339999973773956299e-01 1.989100074768066406e+01 0.000000000000000000e+00 1.879999935626983643e-01 3.919999897480010986e-01 1.978300094604492188e+01
1.913599967956542969e+01 0.000000000000000000e+00 0.000000000000000000e+00 3.370000123977661133e-01 1.944199943542480469e+01 0.000000000000000000e+00 3.910000026226043701e-01 6.199999898672103882e-02 1.904199981689453125e+01
1.940099906921386719e+01 0.000000000000000000e+00 0.000000000000000000e+00 3.409999907016754150e-01 1.971100044250488281e+01 0.000000000000000000e+00 3.959999978542327881e-01 6.300000101327896118e-02 1.930599975585937500e+01
2.003599929809570312e+01 0.000000000000000000e+00 0.000000000000000000e+00 4.679999947547912598e-01 2.012599945068359375e+01 0.000000000000000000e+00 -5.200000107288360596e-02 1.199999973177909851e-01 2.021800041198730469e+01
1.972100067138671875e+01 0.000000000000000000e+00 0.000000000000000000e+00 3.600000143051147461e-01 1.972699928283691406e+01 0.000000000000000000e+00 -1.840000003576278687e-01 6.100000068545341492e-02 1.916699981689453125e+01
1.931500053405761719e+01 0.000000000000000000e+00 0.000000000000000000e+00 1.480000019073486328e-01 1.850699996948242188e+01 0.000000000000000000e+00 3.490000069141387939e-01 -3.819999992847442627e-01 1.878100013732910156e+01
2.069300079345703125e+01 0.000000000000000000e+00 0.000000000000000000e+00 1.589999943971633911e-01 1.982699966430664062e+01 0.000000000000000000e+00 3.740000128746032715e-01 -4.099999964237213135e-01 2.012100028991699219e+01
1.920599937438964844e+01 0.000000000000000000e+00 0.000000000000000000e+00 -2.660000026226043701e-01 1.922299957275390625e+01 0.000000000000000000e+00 3.440000116825103760e-01 -3.319999873638153076e-01 1.907999992370605469e+01
1.997500038146972656e+01 0.000000000000000000e+00 0.000000000000000000e+00 3.650000095367431641e-01 1.998100090026855469e+01 0.000000000000000000e+00 -1.860000044107437134e-01 6.100000068545341492e-02 1.941300010681152344e+01
2.017399978637695312e+01 0.000000000000000000e+00 0.000000000000000000e+00 1.550000011920928955e-01 1.932999992370605469e+01 0.000000000000000000e+00 3.639999926090240479e-01 -3.989999890327453613e-01 1.961599922180175781e+01
1.890699958801269531e+01 0.000000000000000000e+00 0.000000000000000000e+00 -2.280000001192092896e-01 1.933799934387207031e+01 0.000000000000000000e+00 1.829999983310699463e-01 3.810000121593475342e-01 1.923299980163574219e+01
1.980299949645996094e+01 0.000000000000000000e+00 0.000000000000000000e+00 -2.989999949932098389e-01 1.945299911499023438e+01 0.000000000000000000e+00 -1.040000021457672119e-01 -8.799999952316284180e-02 1.967499923706054688e+01
1.947400093078613281e+01 0.000000000000000000e+00 0.000000000000000000e+00 -2.349999994039535522e-01 1.991900062561035156e+01 0.000000000000000000e+00 1.889999955892562866e-01 3.930000066757202148e-01 1.981100082397460938e+01
1.938999938964843750e+01 0.000000000000000000e+00 0.000000000000000000e+00 4.530000090599060059e-01 1.947699928283691406e+01 0.000000000000000000e+00 -5.000000074505805969e-02 1.159999966621398926e-01 1.956599998474121094e+01
1.900600051879882812e+01 0.000000000000000000e+00 0.000000000000000000e+00 -1.650000065565109253e-01 1.960899925231933594e+01 0.000000000000000000e+00 8.299999684095382690e-02 1.010000035166740417e-01 1.958900070190429688e+01
1.963899993896484375e+01 0.000000000000000000e+00 0.000000000000000000e+00 -3.000000026077032089e-03 2.040600013732910156e+01 0.000000000000000000e+00 -4.379999935626983643e-01 -3.000000119209289551e-01 1.961100006103515625e+01
2.018899917602539062e+01 0.000000000000000000e+00 0.000000000000000000e+00 1.550000011920928955e-01 1.934399986267089844e+01 0.000000000000000000e+00 3.650000095367431641e-01 -4.000000059604644775e-01 1.963100051879882812e+01
1.936800003051757812e+01 0.000000000000000000e+00 0.000000000000000000e+00 -2.329999953508377075e-01 1.980999946594238281e+01 0.000000000000000000e+00 1.879999935626983643e-01 3.910000026226043701e-01 1.970199966430664062e+01
1.861499977111816406e+01 0.000000000000000000e+00 0.000000000000000000e+00 -1.620000004768371582e-01 1.920599937438964844e+01 0.000000000000000000e+00 8.100000023841857910e-02 9.899999946355819702e-02 1.918600082397460938e+01
1.903100013732910156e+01 0.000000000000000000e+00 0.000000000000000000e+00 -2.290000021457672119e-01 1.946500015258789062e+01 0.000000000000000000e+00 1.840000003576278687e-01 3.840000033378601074e-01 1.935899925231933594e+01
1.949300003051757812e+01 0.000000000000000000e+00 0.000000000000000000e+00 4.560000002384185791e-01 1.957999992370605469e+01 0.000000000000000000e+00 -5.000000074505805969e-02 1.169999986886978149e-01 1.967000007629394531e+01
1.955599975585937500e+01 0.000000000000000000e+00 0.000000000000000000e+00 3.440000116825103760e-01 1.986899948120117188e+01 0.000000000000000000e+00 4.000000059604644775e-01 6.300000101327896118e-02 1.946100044250488281e+01
2.048200035095214844e+01 0.000000000000000000e+00 0.000000000000000000e+00 4.839999973773956299e-01 1.961300086975097656e+01 0.000000000000000000e+00 9.399999678134918213e-02 1.700000092387199402e-02 2.009700012207031250e+01
1.989500045776367188e+01 0.000000000000000000e+00 0.000000000000000000e+00 0.000000000000000000e+00 1.989500045776367188e+01 0.000000000000000000e+00 0.000000000000000000e+00 0.000000000000000000e+00 1.989500045776367188e+01
1.955999946594238281e+01 0.000000000000000000e+00 0.000000000000000000e+00 -2.960000038146972656e-01 1.921299934387207031e+01 0.000000000000000000e+00 -1.030000001192092896e-01 -8.699999749660491943e-02 1.943300056457519531e+01
1.947800064086914062e+01 0.000000000000000000e+00 0.000000000000000000e+00 -2.939999997615814209e-01 1.913400077819824219e+01 0.000000000000000000e+00 -1.019999980926513672e-01 -8.699999749660491943e-02 1.935300064086914062e+01
1.948800086975097656e+01 0.000000000000000000e+00 0.000000000000000000e+00 -2.689999938011169434e-01 1.950499916076660156e+01 0.000000000000000000e+00 3.490000069141387939e-01 -3.370000123977661133e-01 1.935899925231933594e+01
1.932200050354003906e+01 0.000000000000000000e+00 0.000000000000000000e+00 3.400000035762786865e-01 1.963199996948242188e+01 0.000000000000000000e+00 3.950000107288360596e-01 6.300000101327896118e-02 1.922800064086914062e+01
2.030800056457519531e+01 0.000000000000000000e+00 0.000000000000000000e+00 1.560000032186508179e-01 1.945800018310546875e+01 0.000000000000000000e+00 3.670000135898590088e-01 -4.020000100135803223e-01 1.974600028991699219e+01
1.913599967956542969e+01 0.000000000000000000e+00 0.000000000000000000e+00 -3.000000026077032089e-03 1.988299942016601562e+01 0.000000000000000000e+00 -4.269999861717224121e-01 -2.919999957084655762e-01 1.910799980163574219e+01
2.010799980163574219e+01 0.000000000000000000e+00 0.000000000000000000e+00 3.670000135898590088e-01 2.011499977111816406e+01 0.000000000000000000e+00 -1.870000064373016357e-01 6.199999898672103882e-02 1.954299926757812500e+01
1.991799926757812500e+01 0.000000000000000000e+00 0.000000000000000000e+00 4.709999859333038330e-01 1.907299995422363281e+01 0.000000000000000000e+00 9.200000017881393433e-02 1.600000075995922089e-02 1.954299926757812500e+01
2.005900001525878906e+01 0.000000000000000000e+00 0.000000000000000000e+00 4.690000116825103760e-01 2.014900016784667969e+01 0.000000000000000000e+00 -5.200000107288360596e-02 1.209999993443489075e-01 2.024099922180175781e+01
1.876700019836425781e+01 0.000000000000000000e+00 0.000000000000000000e+00 -3.000000026077032089e-03 1.950000000000000000e+01 0.000000000000000000e+00 -4.189999997615814209e-01 -2.860000133514404297e-01 1.873999977111816406e+01
2.008600044250488281e+01 0.000000000000000000e+00 0.000000000000000000e+00 3.670000135898590088e-01 2.009300041198730469e+01 0.000000000000000000e+00 -1.870000064373016357e-01 6.199999898672103882e-02 1.952199935913085938e+01
1.982200050354003906e+01 0.000000000000000000e+00 0.000000000000000000e+00 3.619999885559082031e-01 1.982900047302246094e+01 0.000000000000000000e+00 -1.850000023841857910e-01 6.100000068545341492e-02 1.926600074768066406e+01
1.930800056457519531e+01 0.000000000000000000e+00 0.000000000000000000e+00 -3.000000026077032089e-03 2.006200027465820312e+01 0.000000000000000000e+00 -4.309999942779541016e-01 -2.949999868869781494e-01 1.928000068664550781e+01
1.988400077819824219e+01 0.000000000000000000e+00 0.000000000000000000e+00 1.529999971389770508e-01 1.905100059509277344e+01 0.000000000000000000e+00 3.589999973773956299e-01 -3.939999938011169434e-01 1.933399963378906250e+01
1.989399909973144531e+01 0.000000000000000000e+00 0.000000000000000000e+00 0.000000000000000000e+00 1.989399909973144531e+01 0.000000000000000000e+00 0.000000000000000000e+00 0.000000000000000000e+00 1.989399909973144531e+01
2.051600074768066406e+01 0.000000000000000000e+00 0.000000000000000000e+00 1.580000072717666626e-01 1.965699958801269531e+01 0.000000000000000000e+00 3.709999918937683105e-01 -4.059999883174896240e-01 1.994899940490722656e+01
1.982099914550781250e+01 0.000000000000000000e+00 0.000000000000000000e+00 1.519999951124191284e-01 1.899099922180175781e+01 0.000000000000000000e+00 3.580000102519989014e-01 -3.919999897480010986e-01 1.927300071716308594e+01
1.991200065612792969e+01 0.000000000000000000e+00 0.000000000000000000e+00 0.000000000000000000e+00 1.991200065612792969e+01 0.000000000000000000e+00 0.000000000000000000e+00 0.000000000000000000e+00 1.991200065612792969e+01
2.001399993896484375e+01 0.000000000000000000e+00 0.000000000000000000e+00 1.539999991655349731e-01 1.917600059509277344e+01 0.000000000000000000e+00 3.619999885559082031e-01 -3.959999978542327881e-01 1.945999908447265625e+01
1.944300079345703125e+01 0.000000000000000000e+00 0.000000000000000000e+00 -2.939999997615814209e-01 1.909900093078613281e+01 0.000000000000000000e+00 -1.019999980926513672e-01 -8.600000292062759399e-02 1.931800079345703125e+01
2.032600021362304688e+01 0.000000000000000000e+00 0.000000000000000000e+00 -2.809999883174896240e-01 2.034399986267089844e+01 0.000000000000000000e+00 3.639999926090240479e-01 -3.519999980926513672e-01 2.019199943542480469e+01
1.889999961853027344e+01 0.000000000000000000e+00 0.000000000000000000e+00 -3.000000026077032089e-03 1.963800048828125000e+01 0.000000000000000000e+00 -4.219999909400939941e-01 -2.879999876022338867e-01 1.887299919128417969e+01
1.963199996948242188e+01 0.000000000000000000e+00 0.000000000000000000e+00 -2.360000014305114746e-01 2.007900047302246094e+01 0.000000000000000000e+00 1.899999976158142090e-01 3.959999978542327881e-01 1.997100067138671875e+01
1.988500022888183594e+01 0.000000000000000000e+00 0.000000000000000000e+00 3.630000054836273193e-01 1.989200019836425781e+01 0.000000000000000000e+00 -1.850000023841857910e-01 6.100000068545341492e-02 1.932699966430664062e+01
2.021199989318847656e+01 0.000000000000000000e+00 0.000000000000000000e+00 3.689999878406524658e-01 2.021899986267089844e+01 0.000000000000000000e+00 -1.879999935626983643e-01 6.199999898672103882e-02 1.964500045776367188e+01
1.965999984741210938e+01 0.000000000000000000e+00 0.000000000000000000e+00 -1.710000038146972656e-01 2.028400039672851562e+01 0.000000000000000000e+00 8.600000292062759399e-02 1.049999967217445374e-01 2.026300048828125000e+01
1.906699943542480469e+01 0.000000000000000000e+00 0.000000000000000000e+00 3.350000083446502686e-01 1.937199974060058594e+01 0.000000000000000000e+00 3.899999856948852539e-01 6.199999898672103882e-02 1.897400093078613281e+01
1.945100021362304688e+01 0.000000000000000000e+00 0.000000000000000000e+00 3.549999892711639404e-01 1.945800018310546875e+01 0.000000000000000000e+00 -1.809999942779541016e-01 5.999999865889549255e-02 1.890500068664550781e+01
2.005299949645996094e+01 0.000000000000000000e+00 0.000000000000000000e+00 4.690000116825103760e-01 2.014299964904785156e+01 0.000000000000000000e+00 -5.200000107288360596e-02 1.199999973177909851e-01 2.023500061035156250e+01
1.946800041198730469e+01 0.000000000000000000e+00 0.000000000000000000e+00 4.550000131130218506e-01 1.955599975585937500e+01 0.000000000000000000e+00 -5.000000074505805969e-02 1.169999986886978149e-01 1.964500045776367188e+01
1.875399971008300781e+01 0.000000000000000000e+00 0.000000000000000000e+00 -3.000000026077032089e-03 1.948600006103515625e+01 0.000000000000000000e+00 -4.189999997615814209e-01 -2.860000133514404297e-01 1.872699928283691406e+01
2.003199958801269531e+01 0.000000000000000000e+00 0.000000000000000000e+00 -2.770000100135803223e-01 2.004999923706054688e+01 0.000000000000000000e+00 3.580000102519989014e-01 -3.470000028610229492e-01 1.989999961853027344e+01
2.011899948120117188e+01 0.000000000000000000e+00 0.000000000000000000e+00 3.670000135898590088e-01 2.012599945068359375e+01 0.000000000000000000e+00 -1.870000064373016357e-01 6.199999898672103882e-02 1.955400085449218750e+01
1.961700057983398438e+01 0.000000000000000000e+00 0.000000000000000000e+00 3.580000102519989014e-01 1.962299919128417969e+01 0.000000000000000000e+00 -1.829999983310699463e-01 5.999999865889549255e-02 1.906599998474121094e+01
1.998600006103515625e+01 0.000000000000000000e+00 0.000000000000000000e+00 -2.759999930858612061e-01 2.000399971008300781e+01 0.000000000000000000e+00 3.580000102519989014e-01 -3.459999859333038330e-01 1.985499954223632812e+01
1.986300086975097656e+01 0.000000000000000000e+00 0.000000000000000000e+00 -2.750000059604644775e-01 1.988100051879882812e+01 0.000000000000000000e+00 3.549999892711639404e-01 -3.440000116825103760e-01 1.973200035095214844e+01
1.959799957275390625e+01 0.000000000000000000e+00 0.000000000000000000e+00 3.580000102519989014e-01 1.960400009155273438e+01 0.000000000000000000e+00 -1.829999983310699463e-01 5.999999865889549255e-02 1.904700088500976562e+01
1.901799964904785156e+01 0.000000000000000000e+00 0.000000000000000000e+00 -3.000000026077032089e-03 1.976000022888183594e+01 0.000000000000000000e+00 -4.250000119209289551e-01 -2.899999916553497314e-01 1.898999977111816406e+01
1.994000053405761719e+01 0.000000000000000000e+00 0.000000000000000000e+00 3.639999926090240479e-01 1.994599914550781250e+01 0.000000000000000000e+00 -1.860000044107437134e-01 6.100000068545341492e-02 1.937999916076660156e+01
1.963999938964843750e+01 0.000000000000000000e+00 0.000000000000000000e+00 -2.370000034570693970e-01 2.008799934387207031e+01 0.000000000000000000e+00 1.899999976158142090e-01 3.959999978542327881e-01 1.997900009155273438e+01
1.897200012207031250e+01 0.000000000000000000e+00 0.000000000000000000e+00 4.429999887943267822e-01 1.905699920654296875e+01 0.000000000000000000e+00 -4.899999871850013733e-02 1.140000000596046448e-01 1.914399909973144531e+01
1.980599975585937500e+01 0.000000000000000000e+00 0.000000000000000000e+00 3.619999885559082031e-01 1.981299972534179688e+01 0.000000000000000000e+00 -1.840000003576278687e-01 6.100000068545341492e-02 1.925000000000000000e+01
1.950499916076660156e+01 0.000000000000000000e+00 0.000000000000000000e+00 -2.700000107288360596e-01 1.952199935913085938e+01 0.000000000000000000e+00 3.490000069141387939e-01 -3.379999995231628418e-01 1.937599945068359375e+01
2.005800056457519531e+01 0.000000000000000000e+00 0.000000000000000000e+00 1.539999991655349731e-01 1.921800041198730469e+01 0.000000000000000000e+00 3.619999885559082031e-01 -3.970000147819519043e-01 1.950300025939941406e+01
1.989800071716308594e+01 0.000000000000000000e+00 0.000000000000000000e+00 3.499999940395355225e-01 2.021699905395507812e+01 0.000000000000000000e+00 4.070000052452087402e-01 6.400000303983688354e-02 1.980100059509277344e+01
1.959399986267089844e+01 0.000000000000000000e+00 0.000000000000000000e+00 0.000000000000000000e+00 1.959399986267089844e+01 0.000000000000000000e+00 0.000000000000000000e+00 0.000000000000000000e+00 1.959399986267089844e+01
1.960199928283691406e+01 0.000000000000000000e+00 0.000000000000000000e+00 -2.709999978542327881e-01 1.961899948120117188e+01 0.000000000000000000e+00 3.510000109672546387e-01 -3.389999866485595703e-01 1.947200012207031250e+01
1.913899993896484375e+01 0.000000000000000000e+00 0.000000000000000000e+00 -2.649999856948852539e-01 1.915600013732910156e+01 0.000000000000000000e+00 3.420000076293945312e-01 -3.310000002384185791e-01 1.901300048828125000e+01
1.952300071716308594e+01 0.000000000000000000e+00 0.000000000000000000e+00 3.560000061988830566e-01 1.952899932861328125e+01 0.000000000000000000e+00 -1.819999963045120239e-01 5.999999865889549255e-02 1.897500038146972656e+01
1.888299942016601562e+01 0.000000000000000000e+00 0.000000000000000000e+00 -2.269999980926513672e-01 1.931299972534179688e+01 0.000000000000000000e+00 1.829999983310699463e-01 3.810000121593475342e-01 1.920899963378906250e+01
2.016600036621093750e+01 0.000000000000000000e+00 0.000000000000000000e+00 3.549999892711639404e-01 2.048900032043457031e+01 0.000000000000000000e+00 4.120000004768371582e-01 6.499999761581420898e-02 2.006800079345703125e+01
1.987999916076660156e+01 0.000000000000000000e+00 0.000000000000000000e+00 3.499999940395355225e-01 2.019799995422363281e+01 0.000000000000000000e+00 4.059999883174896240e-01 6.400000303983688354e-02 1.978300094604492188e+01
1.957600021362304688e+01 0.000000000000000000e+00 0.000000000000000000e+00 -2.960000038146972656e-01 1.922900009155273438e+01 0.000000000000000000e+00 -1.030000001192092896e-01 -8.699999749660491943e-02 1.944899940490722656e+01
2.012199974060058594e+01 0.000000000000000000e+00 0.000000000000000000e+00 1.539999991655349731e-01 1.928000068664550781e+01 0.000000000000000000e+00 3.639999926090240479e-01 -3.980000019073486328e-01 1.956599998474121094e+01
1.943400001525878906e+01 0.000000000000000000e+00 0.000000000000000000e+00 -3.000000026077032089e-03 2.019300079345703125e+01 0.000000000000000000e+00 -4.339999854564666748e-01 -2.969999909400939941e-01 1.940600013732910156e+01
2.052700042724609375e+01 0.000000000000000000e+00 0.000000000000000000e+00 4.860000014305114746e-01 1.965699958801269531e+01 0.000000000000000000e+00 9.499999880790710449e-02 1.700000092387199402e-02 2.014100074768066406e+01
1.994000053405761719e+01 0.000000000000000000e+00 0.000000000000000000e+00 1.529999971389770508e-01 1.910499954223632812e+01 0.000000000000000000e+00 3.600000143051147461e-01 -3.950000107288360596e-01 1.938899993896484375e+01
1.961400032043457031e+01 0.000000000000000000e+00 0.000000000000000000e+00 3.449999988079071045e-01 1.992799949645996094e+01 0.000000000000000000e+00 4.009999930858612061e-01 6.300000101327896118e-02 1.951899909973144531e+01
1.860899925231933594e+01 0.000000000000000000e+00 0.000000000000000000e+00 -1.620000004768371582e-01 1.920000076293945312e+01 0.000000000000000000e+00 8.100000023841857910e-02 9.899999946355819702e-02 1.918000030517578125e+01