-6.237687109375000000e+04
-6.236182812500000000e+04
-6.239233984375000000e+04
-6.239439843750000000e+04
-6.236775390625000000e+04
-6.237689062500000000e+04
-6.236325000000000000e+04
-6.237825781250000000e+04
-6.236107812500000000e+04
-6.237482812500000000e+04
-6.241178906250000000e+04
-6.235449609375000000e+04
-6.240488671875000000e+04
-6.239467578125000000e+04
-6.236507812500000000e+04
-6.236833203125000000e+04
-6.237858203125000000e+04
-6.236741406250000000e+04
-6.236169921875000000e+04
-6.239239843750000000e+04
-6.239209375000000000e+04
-6.237438671875000000e+04
-6.236800000000000000e+04
-6.236239062500000000e+04
-6.237954687500000000e+04
-6.236668750000000000e+04
-6.239558593750000000e+04
-6.240645703125000000e+04
-6.238878906250000000e+04
-6.238389453125000000e+04
-6.236075781250000000e+04
-6.239733203125000000e+04
-6.239850781250000000e+04
-6.235925390625000000e+04
-6.235977734375000000e+04
-6.238309375000000000e+04
-6.236705078125000000e+04
-6.238450781250000000e+04
-6.238107421875000000e+04
-6.237937890625000000e+04
-6.236771484375000000e+04
-6.239784375000000000e+04
-6.238826953125000000e+04
-6.236196875000000000e+04
-6.236272265625000000e+04
-6.236415625000000000e+04
-6.239428906250000000e+04
-6.239671093750000000e+04
-6.236171484375000000e+04
-6.238007031250000000e+04
-6.239300000000000000e+04
-6.239403125000000000e+04
-6.235939453125000000e+04
-6.236740234375000000e+04
-6.240153125000000000e+04
-6.236371875000000000e+04
-6.239662500000000000e+04
-6.238258593750000000e+04
-6.237958203125000000e+04
-6.239860156250000000e+04
-6.238000390625000000e+04
-6.237585546875000000e+04
-6.238398046875000000e+04
-6.238206640625000000e+04
-6.237705468750000000e+04
-6.236314843750000000e+04
-6.237685546875000000e+04
-6.239239843750000000e+04
-6.239449609375000000e+04
-6.237769140625000000e+04
-6.238053125000000000e+04
-6.236556640625000000e+04
-6.236564062500000000e+04
-6.239532421875000000e+04
-6.237306250000000000e+04
-6.237841406250000000e+04
-6.238217968750000000e+04
-6.237440625000000000e+04
-6.239098437500000000e+04
-6.236149609375000000e+04
-6.237883203125000000e+04
-6.235828515625000000e+04
-6.240027343750000000e+04
-6.236249609375000000e+04
-6.238212109375000000e+04
-6.237678125000000000e+04
-6.239637890625000000e+04
-6.236850390625000000e+04
-6.235927343750000000e+04
-6.239272265625000000e+04
-6.235974609375000000e+04
-6.237687109375000000e+04
-6.239612109375000000e+04
-6.235877343750000000e+04
-6.239218359375000000e+04
-6.236519921875000000e+04
-6.238067187500000000e+04
-6.235837109375000000e+04
-6.236553906250000000e+04
-6.238661328125000000e+04
-6.239426953125000000e+04
-6.236091406250000000e+04
-6.237685546875000000e+04
-6.239883203125000000e+04
-6.236096484375000000e+04
-6.236567578125000000e+04
-6.239478906250000000e+04
-6.236110937500000000e+04
-6.236288281250000000e+04
-6.239492968750000000e+04
-6.239391796875000000e+04
-6.237346484375000000e+04
-6.235952734375000000e+04
-6.239604296875000000e+04
-6.238106250000000000e+04
-6.239046875000000000e+04
-6.238036328125000000e+04
-6.235781250000000000e+04
-6.238003515625000000e+04
-6.238167578125000000e+04
-6.239798046875000000e+04
-6.239618359375000000e+04
-6.239634765625000000e+04
-6.236303515625000000e+04
-6.236595312500000000e+04
-6.239432812500000000e+04
-6.237916015625000000e+04
-6.238036718750000000e+04
-6.236372656250000000e+04
-6.238171093750000000e+04
-6.237707812500000000e+04
-6.238916015625000000e+04
-6.236557421875000000e+04
-6.239927734375000000e+04
-6.239613671875000000e+04
-6.238090234375000000e+04
-6.237330859375000000e+04
-6.237693750000000000e+04
-6.235678515625000000e+04
-6.238120703125000000e+04
-6.238536718750000000e+04
-6.237953906250000000e+04
-6.239467578125000000e+04
-6.237635937500000000e+04
-6.237396484375000000e+04
-6.239708593750000000e+04
-6.237325781250000000e+04
-6.240698828125000000e+04
-6.236418359375000000e+04
-6.236375000000000000e+04
-6.238382812500000000e+04
-6.237915625000000000e+04
-6.235707421875000000e+04
-6.236258203125000000e+04
-6.237988671875000000e+04
-6.239321484375000000e+04
-6.238173046875000000e+04
-6.237133984375000000e+04
-6.238717968750000000e+04
-6.236626953125000000e+04
-6.236521875000000000e+04
-6.239526562500000000e+04
-6.237611328125000000e+04
-6.241487500000000000e+04
-6.239413281250000000e+04
-6.238195312500000000e+04
-6.235819531250000000e+04
-6.236215234375000000e+04
-6.237463281250000000e+04
-6.241153515625000000e+04
-6.239516015625000000e+04
-6.235947265625000000e+04
-6.237844921875000000e+04
-6.236357421875000000e+04
-6.239347656250000000e+04
-6.236952734375000000e+04
-6.236015625000000000e+04
-6.236083984375000000e+04
-6.236010937500000000e+04
-6.236800781250000000e+04
-6.238024218750000000e+04
-6.239398437500000000e+04
-6.239354296875000000e+04
-6.236124218750000000e+04
-6.236248437500000000e+04
-6.236400390625000000e+04
-6.237205859375000000e+04
-6.238176171875000000e+04
-6.237836328125000000e+04
-6.236394531250000000e+04
-6.236753125000000000e+04
-6.239801562500000000e+04
-6.236303515625000000e+04
-6.239630468750000000e+04
-6.239683203125000000e+04
-6.236847656250000000e+04
-6.236715625000000000e+04
-6.237537500000000000e+04
-6.239369921875000000e+04
-6.236478515625000000e+04
-6.237438671875000000e+04
-6.236891406250000000e+04
-6.237841796875000000e+04
-6.237666796875000000e+04
-6.236083593750000000e+04
-6.238203515625000000e+04
-6.236782031250000000e+04
-6.239882812500000000e+04
-6.237860156250000000e+04
-6.238245312500000000e+04
-6.236437890625000000e+04
-6.236074609375000000e+04
-6.236745703125000000e+04
-6.235423437500000000e+04
-6.235805468750000000e+04
-6.237746093750000000e+04
-6.237803125000000000e+04
-6.236767187500000000e+04
-6.238092578125000000e+04
-6.236874218750000000e+04
-6.238536718750000000e+04
-6.236492187500000000e+04
-6.235690234375000000e+04
-6.236537890625000000e+04
-6.236062109375000000e+04
-6.238187890625000000e+04
-6.237865625000000000e+04
-6.236816015625000000e+04
-6.237874218750000000e+04
-6.238111718750000000e+04
-6.236889843750000000e+04
-6.236164843750000000e+04
-6.237756250000000000e+04
-6.236548828125000000e+04
-6.236254296875000000e+04
-6.237803515625000000e+04
-6.238026953125000000e+04
-6.239515625000000000e+04
-6.236476562500000000e+04
-6.236471093750000000e+04
-6.236067187500000000e+04
-6.236761328125000000e+04
-6.235887109375000000e+04
-6.236639453125000000e+04
-6.236404296875000000e+04
-6.236773046875000000e+04
-6.238722656250000000e+04
-6.239446484375000000e+04
-6.238009375000000000e+04
-6.237561718750000000e+04
-6.239525781250000000e+04
-6.236363671875000000e+04
-6.238289062500000000e+04
-6.235962890625000000e+04
-6.236372656250000000e+04
-6.238083203125000000e+04
-6.236551562500000000e+04
-6.236589843750000000e+04
-6.238137109375000000e+04
-6.236016015625000000e+04
-6.236418359375000000e+04
-6.236307812500000000e+04
-6.239520312500000000e+04
-6.239316796875000000e+04
-6.236823828125000000e+04
-6.239475781250000000e+04
-6.239871093750000000e+04
-6.239620312500000000e+04
-6.240853515625000000e+04
-6.236383593750000000e+04
-6.236089843750000000e+04
-6.236126171875000000e+04
-6.239653515625000000e+04
-6.239406640625000000e+04
-6.237625390625000000e+04
-6.236404687500000000e+04
-6.236818750000000000e+04
-6.236132812500000000e+04
-6.239557031250000000e+04
-6.239731250000000000e+04
-6.237472265625000000e+04
-6.236622265625000000e+04
-6.239292187500000000e+04
-6.236094140625000000e+04
-6.238082421875000000e+04
-6.236762109375000000e+04
-6.239629296875000000e+04
-6.236485546875000000e+04
-6.237930468750000000e+04
-6.236878125000000000e+04
-6.235934765625000000e+04
-6.238790625000000000e+04
-6.236635937500000000e+04
-6.235999218750000000e+04
-6.239051171875000000e+04
-6.239764453125000000e+04
-6.239336328125000000e+04
-6.236410937500000000e+04
-6.237901562500000000e+04
-6.236373046875000000e+04
-6.238011718750000000e+04
-6.235300000000000000e+04
-6.239393750000000000e+04
-6.236407812500000000e+04
-6.236493359375000000e+04
-6.236097265625000000e+04
-6.239382031250000000e+04
-6.236307031250000000e+04
-6.236686718750000000e+04
-6.239519140625000000e+04
-6.237826562500000000e+04
-6.238075000000000000e+04
-6.235779296875000000e+04
-6.235986328125000000e+04
-6.236074218750000000e+04
-6.239551171875000000e+04
-6.236125781250000000e+04
-6.239349218750000000e+04
-6.236521875000000000e+04
-6.235800781250000000e+04
-6.236006250000000000e+04
-6.239331250000000000e+04
-6.239863281250000000e+04
-6.236453906250000000e+04
-6.236778125000000000e+04
-6.237135937500000000e+04
-6.236710156250000000e+04
-6.236282031250000000e+04
-6.236585546875000000e+04
-6.237998828125000000e+04
-6.236233203125000000e+04
-6.236379687500000000e+04
-6.235766406250000000e+04
-6.239027734375000000e+04
-6.239055468750000000e+04
-6.236212109375000000e+04
-6.235736718750000000e+04
-6.236545703125000000e+04
-6.237835156250000000e+04
-6.238086328125000000e+04
-6.238058203125000000e+04
-6.239807421875000000e+04
-6.239653515625000000e+04
-6.239380859375000000e+04
-6.236380468750000000e+04
-6.236312890625000000e+04
-6.235718750000000000e+04
-6.238081640625000000e+04
-6.236286718750000000e+04
-6.238039062500000000e+04
-6.237717187500000000e+04
-6.235933984375000000e+04
-6.239351562500000000e+04
-6.236835937500000000e+04
-6.239559375000000000e+04
-6.236396484375000000e+04
-6.236551953125000000e+04
-6.236372656250000000e+04
-6.239674218750000000e+04
-6.239804687500000000e+04
-6.238102734375000000e+04
-6.240239843750000000e+04
-6.238025000000000000e+04
-6.239663671875000000e+04
-6.239266406250000000e+04
-6.239666015625000000e+04
-6.236639062500000000e+04
-6.238258984375000000e+04
-6.238043359375000000e+04
-6.236331640625000000e+04
-6.237469531250000000e+04
-6.236667578125000000e+04
-6.236259765625000000e+04
-6.236177343750000000e+04
-6.236155859375000000e+04
-6.239748828125000000e+04
-6.236800390625000000e+04
-6.237530468750000000e+04
-6.238966406250000000e+04
-6.236641796875000000e+04
-6.236174218750000000e+04
-6.238035546875000000e+04
-6.239357421875000000e+04
-6.236217187500000000e+04
-6.236604296875000000e+04
-6.239575000000000000e+04
-6.236758984375000000e+04
-6.239576171875000000e+04
-6.238201953125000000e+04
-6.237908203125000000e+04
-6.239537890625000000e+04
-6.239459375000000000e+04
-6.236198828125000000e+04
-6.237923828125000000e+04
-6.236532031250000000e+04
-6.237719921875000000e+04
-6.235588671875000000e+04
-6.239650000000000000e+04
-6.239504296875000000e+04
-6.239278515625000000e+04
-6.237982421875000000e+04
-6.236175781250000000e+04
-6.239520703125000000e+04
-6.236729296875000000e+04
-6.236292578125000000e+04
-6.236932812500000000e+04
-6.239127343750000000e+04
-6.236446093750000000e+04
-6.236431250000000000e+04
-6.237787500000000000e+04
-6.239694531250000000e+04
-6.239684765625000000e+04
-6.237898828125000000e+04
-6.237292968750000000e+04
-6.236965625000000000e+04
-6.239736328125000000e+04
-6.237535546875000000e+04
-6.239514843750000000e+04
-6.236535937500000000e+04
-6.236227734375000000e+04
-6.236316015625000000e+04
-6.237559375000000000e+04
-6.239327734375000000e+04
-6.237189453125000000e+04
-6.236151171875000000e+04
-6.237659375000000000e+04
-6.239214062500000000e+04
-6.236438281250000000e+04
-6.238814062500000000e+04
-6.238315234375000000e+04
-6.237813671875000000e+04
-6.236319531250000000e+04
-6.236461718750000000e+04
-6.236482031250000000e+04
-6.235823437500000000e+04
-6.237844140625000000e+04
-6.239075390625000000e+04
-6.237812890625000000e+04
-6.239676562500000000e+04
-6.239941796875000000e+04
-6.239462500000000000e+04
-6.238459375000000000e+04
-6.236923437500000000e+04
-6.236424609375000000e+04
-6.237975000000000000e+04
-6.237563281250000000e+04
-6.235881250000000000e+04
-6.236310156250000000e+04
-6.239785156250000000e+04
-6.240514453125000000e+04
-6.235429296875000000e+04
-6.239676953125000000e+04
-6.237780859375000000e+04
-6.237761328125000000e+04
-6.237814453125000000e+04
-6.239391796875000000e+04
-6.237463281250000000e+04
-6.237855859375000000e+04
-6.235902343750000000e+04
-6.238176953125000000e+04
-6.239692968750000000e+04
-6.237420703125000000e+04
-6.238565234375000000e+04
-6.235666796875000000e+04
-6.236444531250000000e+04
-6.237823437500000000e+04
-6.239336718750000000e+04
-6.237111718750000000e+04
-6.239606250000000000e+04
-6.239675390625000000e+04
-6.237366796875000000e+04
-6.236041015625000000e+04
-6.236417187500000000e+04
-6.236384765625000000e+04
-6.236092968750000000e+04
-6.236867968750000000e+04
-6.239274609375000000e+04
-6.236143359375000000e+04
-6.238505078125000000e+04
-6.236249609375000000e+04
-6.238325390625000000e+04
-6.235886328125000000e+04
-6.239494921875000000e+04
-6.238228125000000000e+04
-6.236309375000000000e+04
-6.236399609375000000e+04
-6.237833984375000000e+04
-6.239784375000000000e+04
-6.237059765625000000e+04
-6.239685546875000000e+04
-6.237835156250000000e+04
-6.237531640625000000e+04
-6.237629296875000000e+04
-6.236477734375000000e+04
-6.236625781250000000e+04
-6.236841796875000000e+04
-6.237354296875000000e+04
-6.236055859375000000e+04
-6.238007421875000000e+04
-6.236107031250000000e+04
-6.235744531250000000e+04
-6.236666406250000000e+04
-6.236194921875000000e+04
-6.238343359375000000e+04
-6.236403125000000000e+04
-6.239101171875000000e+04
-6.236008984375000000e+04
-6.235894921875000000e+04
-6.239698828125000000e+04
-6.236576953125000000e+04
-6.236505468750000000e+04
-6.236678906250000000e+04
-6.237917578125000000e+04
-6.236371484375000000e+04
-6.236308593750000000e+04
-6.236787890625000000e+04
-6.238373828125000000e+04
-6.237965234375000000e+04
-6.239626171875000000e+04
-6.239583203125000000e+04
-6.237385156250000000e+04
-6.236908593750000000e+04
-6.239769531250000000e+04
-6.238034375000000000e+04
-6.237805078125000000e+04
-6.236473437500000000e+04
-6.238925390625000000e+04
-6.239817968750000000e+04
-6.237685937500000000e+04
-6.239181640625000000e+04
-6.236417187500000000e+04
-6.235955078125000000e+04
-6.237608984375000000e+04
-6.237934375000000000e+04
-6.239298828125000000e+04
-6.239314062500000000e+04
-6.236557812500000000e+04
-6.236753125000000000e+04
-6.237917578125000000e+04
-6.238055078125000000e+04
-6.236627343750000000e+04
-6.239546875000000000e+04
-6.237394921875000000e+04
-6.236230078125000000e+04
-6.237415234375000000e+04
-6.239501171875000000e+04
-6.236925390625000000e+04
-6.236329296875000000e+04
-6.239800390625000000e+04
-6.240178125000000000e+04
-6.236004296875000000e+04
-6.239574218750000000e+04
-6.236521875000000000e+04
-6.239480859375000000e+04
-6.239030859375000000e+04
-6.236612109375000000e+04
-6.239201171875000000e+04
-6.235905078125000000e+04
-6.239522656250000000e+04
-6.237554296875000000e+04
-6.236357031250000000e+04
-6.236385937500000000e+04
-6.236728125000000000e+04
-6.235942968750000000e+04
-6.237871484375000000e+04
-6.238316015625000000e+04
-6.239922656250000000e+04
-6.236419140625000000e+04
-6.235986328125000000e+04
-6.236469140625000000e+04
-6.236092578125000000e+04
-6.238598046875000000e+04
-6.240753906250000000e+04
-6.237341015625000000e+04
-6.236762500000000000e+04
-6.235831250000000000e+04
-6.235958203125000000e+04
-6.239516406250000000e+04
-6.237875390625000000e+04
-6.235755859375000000e+04
-6.237510937500000000e+04
-6.237780859375000000e+04
-6.236129687500000000e+04
-6.238010937500000000e+04
-6.240460156250000000e+04
-6.235714453125000000e+04
-6.237887500000000000e+04
-6.236378515625000000e+04
-6.237142578125000000e+04
-6.240023437500000000e+04
-6.241107421875000000e+04
-6.237673437500000000e+04
-6.239744921875000000e+04
-6.237653515625000000e+04
-6.237999218750000000e+04
-6.238034765625000000e+04
-6.238246093750000000e+04
-6.236285156250000000e+04
-6.237887500000000000e+04
-6.239034375000000000e+04
-6.239685937500000000e+04
-6.238053515625000000e+04
-6.238073046875000000e+04
-6.236517187500000000e+04
-6.237761328125000000e+04
-6.236289453125000000e+04
-6.238272656250000000e+04
-6.239234765625000000e+04
-6.237395312500000000e+04
-6.236385156250000000e+04
-6.237748437500000000e+04
-6.236287890625000000e+04
-6.235903125000000000e+04
-6.237792578125000000e+04
-6.237980468750000000e+04
-6.236364843750000000e+04
-6.237994921875000000e+04
-6.238415625000000000e+04
-6.237705859375000000e+04
-6.236291796875000000e+04
-6.238205468750000000e+04
-6.235982031250000000e+04
-6.237624218750000000e+04
-6.236244531250000000e+04
-6.239317187500000000e+04
-6.241022265625000000e+04
-6.239555859375000000e+04
-6.236083984375000000e+04
-6.236285156250000000e+04
-6.239366796875000000e+04
-6.239442968750000000e+04
-6.241007031250000000e+04
-6.236333203125000000e+04
-6.235762109375000000e+04
-6.237972265625000000e+04
-6.239796484375000000e+04
-6.235973046875000000e+04
-6.239673828125000000e+04
-6.235901953125000000e+04
-6.239683203125000000e+04
-6.238226562500000000e+04
-6.238023437500000000e+04
-6.239516796875000000e+04
-6.239406640625000000e+04
-6.238302734375000000e+04
-6.236083593750000000e+04
-6.239302343750000000e+04
-6.239624609375000000e+04
-6.239581640625000000e+04
-6.239495703125000000e+04
-6.237633203125000000e+04
-6.236381250000000000e+04
-6.236505859375000000e+04
-6.237535156250000000e+04
-6.237685937500000000e+04
-6.237812890625000000e+04
-6.237684375000000000e+04
-6.236284375000000000e+04
-6.236787500000000000e+04
-6.240154296875000000e+04
-6.239323437500000000e+04
-6.238261718750000000e+04
-6.237632421875000000e+04
-6.240807031250000000e+04
-6.238923437500000000e+04
-6.238009765625000000e+04
-6.237892187500000000e+04
-6.236887890625000000e+04
-6.238082812500000000e+04
-6.236159375000000000e+04
-6.239355859375000000e+04
-6.237098437500000000e+04
-6.236610156250000000e+04
-6.237309765625000000e+04
-6.235993359375000000e+04
-6.239578515625000000e+04
-6.237687890625000000e+04
-6.236615234375000000e+04
-6.238161718750000000e+04
-6.236241406250000000e+04
-6.239494531250000000e+04
-6.238890625000000000e+04
-6.236348437500000000e+04
-6.239564062500000000e+04
-6.239735546875000000e+04
-6.238068750000000000e+04
-6.237613281250000000e+04
-6.236328125000000000e+04
-6.237764062500000000e+04
-6.239258593750000000e+04
-6.239656640625000000e+04
-6.235895312500000000e+04
-6.239576562500000000e+04
-6.238194531250000000e+04
-6.237455859375000000e+04
-6.239244140625000000e+04
-6.239287890625000000e+04
-6.236443359375000000e+04
-6.237765234375000000e+04
-6.236067187500000000e+04
-6.235617187500000000e+04
-6.235791015625000000e+04
-6.236698437500000000e+04
-6.239480468750000000e+04
-6.237894921875000000e+04
-6.236391406250000000e+04
-6.239587890625000000e+04
-6.236050781250000000e+04
-6.238163281250000000e+04
-6.236431640625000000e+04
-6.239982031250000000e+04
-6.238409375000000000e+04
-6.236194531250000000e+04
-6.240382812500000000e+04
-6.236068750000000000e+04
-6.239845312500000000e+04
-6.239720312500000000e+04
-6.239316015625000000e+04
-6.239192968750000000e+04
-6.236503125000000000e+04
-6.236399609375000000e+04
-6.239831640625000000e+04
-6.236168359375000000e+04
-6.235933203125000000e+04
-6.239697265625000000e+04
-6.237710546875000000e+04
-6.239942968750000000e+04
-6.236651171875000000e+04
-6.238032812500000000e+04
-6.235783203125000000e+04
-6.237717968750000000e+04
-6.236145312500000000e+04
-6.239273828125000000e+04
-6.239922656250000000e+04
-6.239821484375000000e+04
-6.239923046875000000e+04
-6.239470312500000000e+04
-6.237687500000000000e+04
-6.236176562500000000e+04
-6.236102734375000000e+04
-6.236367187500000000e+04
-6.237864843750000000e+04
-6.240041015625000000e+04
-6.239582421875000000e+04
-6.236107421875000000e+04
-6.238006250000000000e+04
-6.239316796875000000e+04
-6.238008984375000000e+04
-6.236216796875000000e+04
-6.239262109375000000e+04
-6.237690234375000000e+04
-6.236371093750000000e+04
-6.239742578125000000e+04
-6.236441796875000000e+04
-6.236477734375000000e+04
-6.240472265625000000e+04
-6.237607812500000000e+04
-6.236695703125000000e+04
-6.235978906250000000e+04
-6.239644921875000000e+04
-6.236197265625000000e+04
-6.239314062500000000e+04
-6.237904687500000000e+04
-6.235908984375000000e+04
-6.238005859375000000e+04
-6.237557421875000000e+04
-6.236750781250000000e+04
-6.237372656250000000e+04
-6.238376562500000000e+04
-6.236404687500000000e+04
-6.236890625000000000e+04
-6.236683984375000000e+04
-6.238210937500000000e+04
-6.239857812500000000e+04
-6.235845703125000000e+04
-6.236453515625000000e+04
-6.237832812500000000e+04
-6.236849218750000000e+04
-6.236565625000000000e+04
-6.237624609375000000e+04
-6.236081250000000000e+04
-6.236419921875000000e+04
-6.240010156250000000e+04
-6.239280468750000000e+04
-6.236623828125000000e+04
-6.239713671875000000e+04
-6.236531640625000000e+04
-6.236489453125000000e+04
-6.235832812500000000e+04
-6.236213671875000000e+04
-6.236644531250000000e+04
-6.236649218750000000e+04
-6.238005078125000000e+04
-6.236123437500000000e+04
-6.237033984375000000e+04
-6.238346875000000000e+04
-6.239315234375000000e+04
-6.239451562500000000e+04
-6.239208593750000000e+04
-6.236350781250000000e+04
-6.236877343750000000e+04
-6.236308593750000000e+04
-6.236267187500000000e+04
-6.236814453125000000e+04
-6.235706250000000000e+04
-6.237831640625000000e+04
-6.237853515625000000e+04
-6.239564843750000000e+04
-6.237996093750000000e+04
-6.237770703125000000e+04
-6.237639062500000000e+04
-6.237727343750000000e+04
-6.239575000000000000e+04
-6.239365234375000000e+04
-6.237252734375000000e+04
-6.236137890625000000e+04
-6.235646484375000000e+04
-6.236626171875000000e+04
-6.239391015625000000e+04
-6.236297265625000000e+04
-6.236686718750000000e+04
-6.236826953125000000e+04
-6.236030078125000000e+04
-6.239360156250000000e+04
-6.238433203125000000e+04
-6.240758203125000000e+04
-6.235607031250000000e+04
-6.239705468750000000e+04
-6.238022265625000000e+04
-6.237801953125000000e+04
-6.236631250000000000e+04
-6.238134375000000000e+04
-6.235913281250000000e+04
-6.236571093750000000e+04
-6.239789062500000000e+04
-6.239611718750000000e+04
-6.237546875000000000e+04
-6.239362109375000000e+04
-6.237821093750000000e+04
-6.239389062500000000e+04
-6.239337109375000000e+04
-6.236080468750000000e+04
-6.238104687500000000e+04
-6.239370312500000000e+04
-6.237651171875000000e+04
-6.239662890625000000e+04
-6.236591796875000000e+04
-6.236461328125000000e+04
-6.238075390625000000e+04
-6.239397265625000000e+04
-6.236919531250000000e+04
-6.237959765625000000e+04
-6.236700000000000000e+04
-6.239610937500000000e+04
-6.239282812500000000e+04
-6.239406250000000000e+04
-6.236352734375000000e+04
-6.236567578125000000e+04
-6.238464062500000000e+04
-6.237438281250000000e+04
-6.240343750000000000e+04
-6.238255468750000000e+04
-6.239200390625000000e+04
-6.239462109375000000e+04
-6.237144921875000000e+04
-6.236510937500000000e+04
-6.236571875000000000e+04
-6.240340234375000000e+04
-6.238023828125000000e+04
-6.237676953125000000e+04
-6.235844140625000000e+04
-6.237817578125000000e+04
-6.239434765625000000e+04
-6.236923046875000000e+04
-6.238429296875000000e+04
-6.236474218750000000e+04
-6.236305468750000000e+04
-6.237771875000000000e+04
-6.236453125000000000e+04
-6.235759765625000000e+04
-6.236032031250000000e+04
-6.238373046875000000e+04
-6.237658593750000000e+04
-6.239787890625000000e+04
-6.239467578125000000e+04
-6.236700390625000000e+04
-6.239207812500000000e+04
-6.236418359375000000e+04
-6.239459765625000000e+04
-6.237654687500000000e+04
-6.237786718750000000e+04
-6.236680078125000000e+04
-6.239567578125000000e+04
-6.237568750000000000e+04
-6.239588281250000000e+04
-6.236225390625000000e+04
-6.238075000000000000e+04
-6.235983984375000000e+04
-6.239807031250000000e+04
-6.241216406250000000e+04
-6.238151953125000000e+04
-6.237555078125000000e+04
-6.236101953125000000e+04
-6.236360546875000000e+04
-6.237750390625000000e+04
-6.239629296875000000e+04
-6.239213281250000000e+04
-6.238350781250000000e+04
-6.236329296875000000e+04
-6.235868750000000000e+04
-6.237864453125000000e+04
-6.235940625000000000e+04
-6.236519531250000000e+04
-6.238015234375000000e+04
-6.239387500000000000e+04
-6.236718359375000000e+04
-6.235714062500000000e+04
-6.237294140625000000e+04
-6.239693750000000000e+04
-6.236016015625000000e+04
-6.236313671875000000e+04
-6.238078125000000000e+04
-6.238376562500000000e+04
-6.237662500000000000e+04
-6.236460546875000000e+04
-6.237887500000000000e+04
-6.237903125000000000e+04
-6.237446875000000000e+04
-6.239356250000000000e+04
-6.235881250000000000e+04
-6.235906250000000000e+04
-6.237760546875000000e+04
-6.239187500000000000e+04
-6.239425390625000000e+04
-6.239596875000000000e+04
-6.239557421875000000e+04
-6.238002343750000000e+04
-6.237746093750000000e+04
-6.236190625000000000e+04
-6.239368359375000000e+04
-6.237865234375000000e+04
-6.238126562500000000e+04
-6.236858203125000000e+04
-6.235690625000000000e+04
-6.237448437500000000e+04
-6.238415625000000000e+04
-6.238074609375000000e+04
-6.236817968750000000e+04
-6.235712890625000000e+04
-6.235703515625000000e+04
-6.237555859375000000e+04
-6.239669921875000000e+04
-6.236449218750000000e+04
-6.240376953125000000e+04
-6.237735546875000000e+04
-6.238055859375000000e+04
-6.237916406250000000e+04
-6.237501953125000000e+04
-6.236581250000000000e+04
-6.236550390625000000e+04
-6.236261718750000000e+04
-6.237701562500000000e+04
-6.237572656250000000e+04
-6.235978125000000000e+04
-6.237508593750000000e+04
-6.237914453125000000e+04
-6.239726953125000000e+04
-6.236200390625000000e+04
-6.239639062500000000e+04
-6.236692578125000000e+04
-6.236552343750000000e+04
-6.239848437500000000e+04
-6.237937500000000000e+04
-6.236492578125000000e+04
-6.238047656250000000e+04
-6.239464843750000000e+04
-6.236144921875000000e+04
-6.239348828125000000e+04
-6.235917968750000000e+04
-6.237097265625000000e+04
-6.239444921875000000e+04
-6.239744921875000000e+04
-6.239930468750000000e+04
-6.237821484375000000e+04
-6.237757031250000000e+04
-6.236546875000000000e+04
-6.237763281250000000e+04
-6.239362500000000000e+04
-6.239778906250000000e+04
-6.236809375000000000e+04
-6.236258593750000000e+04
-6.236411718750000000e+04
-6.238007421875000000e+04
-6.237987109375000000e+04
-6.235886718750000000e+04
-6.238641796875000000e+04
-6.236226953125000000e+04
-6.238210546875000000e+04
-6.236537500000000000e+04
-6.236187500000000000e+04
-6.239318750000000000e+04
-6.239737890625000000e+04
-6.238241015625000000e+04
-6.236231250000000000e+04
-6.237553515625000000e+04
-6.235658593750000000e+04
-6.237628125000000000e+04
-6.236510546875000000e+04
-6.236546093750000000e+04
-6.237830078125000000e+04
-6.236445703125000000e+04
-6.235810546875000000e+04
-6.238110937500000000e+04
-6.239898046875000000e+04
-6.236447656250000000e+04
-6.239951562500000000e+04
-6.238159765625000000e+04
-6.239191796875000000e+04
-6.236658203125000000e+04
-6.235868359375000000e+04
-6.236396093750000000e+04
-6.237873437500000000e+04
-6.236816796875000000e+04
-6.239600000000000000e+04
-6.239234375000000000e+04
-6.236320312500000000e+04
-6.236951562500000000e+04
-6.238967187500000000e+04
-6.236464062500000000e+04
-6.236231250000000000e+04
-6.236729687500000000e+04
-6.237507812500000000e+04
-6.239322656250000000e+04
-6.239496484375000000e+04
-6.239939843750000000e+04
-6.238560937500000000e+04
-6.237952343750000000e+04
-6.239426562500000000e+04
-6.237957812500000000e+04
-6.237926562500000000e+04
-6.236589843750000000e+04
-6.238393750000000000e+04
-6.236391015625000000e+04
-6.237515234375000000e+04
-6.236491796875000000e+04
-6.236560156250000000e+04
-6.236527343750000000e+04
-6.236001953125000000e+04
-6.237351171875000000e+04
-6.236427734375000000e+04
-6.237415234375000000e+04
-6.239348828125000000e+04
-6.237721875000000000e+04
-6.237975781250000000e+04
-6.240622265625000000e+04
-6.237748437500000000e+04
-6.236543750000000000e+04
-6.240183203125000000e+04
-6.238010937500000000e+04
-6.241078515625000000e+04
-6.237902343750000000e+04
-6.239705859375000000e+04
-6.236101171875000000e+04
-6.238085546875000000e+04
-6.239180468750000000e+04
-6.235916406250000000e+04
-6.237774609375000000e+04
-6.239308593750000000e+04
-6.240751953125000000e+04
-6.236523437500000000e+04
-6.238575781250000000e+04
-6.235573437500000000e+04
-6.236400000000000000e+04
-6.239539062500000000e+04
-6.235602734375000000e+04
-6.236110937500000000e+04
-6.236033593750000000e+04
-6.236453125000000000e+04
-6.236023828125000000e+04
-6.235702343750000000e+04
-6.238285546875000000e+04
-6.239891015625000000e+04
-6.238242187500000000e+04
-6.236722265625000000e+04
-6.236238671875000000e+04
-6.238290625000000000e+04
-6.236085937500000000e+04
-6.239325781250000000e+04
-6.238255859375000000e+04
-6.235868359375000000e+04
-6.237719531250000000e+04
-6.239559375000000000e+04
-6.239253515625000000e+04
-6.235965234375000000e+04
-6.236837890625000000e+04
-6.236225781250000000e+04
-6.239437109375000000e+04
-6.239685156250000000e+04
-6.239156250000000000e+04
-6.239238281250000000e+04
-6.238222265625000000e+04
-6.238075781250000000e+04
-6.236512500000000000e+04
-6.239454687500000000e+04
-6.237238671875000000e+04
-6.238220312500000000e+04
-6.236039062500000000e+04
-6.236765625000000000e+04
-6.235718359375000000e+04
-6.237823046875000000e+04
-6.236171093750000000e+04
-6.236299609375000000e+04
-6.239953906250000000e+04
-6.238274218750000000e+04
-6.237504687500000000e+04
-6.236119531250000000e+04
-6.236332812500000000e+04
-6.237544921875000000e+04
-6.239413671875000000e+04
-6.238906250000000000e+04
-6.237603515625000000e+04
-6.235782812500000000e+04
-6.236433593750000000e+04
-6.239464062500000000e+04
-6.238063671875000000e+04
-6.238600781250000000e+04
-6.237902343750000000e+04
-6.239176953125000000e+04
-6.236522265625000000e+04
-6.239635156250000000e+04
-6.236430859375000000e+04
-6.236103515625000000e+04
-6.236798437500000000e+04
-6.237848437500000000e+04
-6.235896093750000000e+04
-6.236412500000000000e+04
-6.239159765625000000e+04
-6.237823828125000000e+04
-6.239747265625000000e+04
-6.237991015625000000e+04
-6.236480468750000000e+04
-6.236358203125000000e+04
-6.237897656250000000e+04
-6.235716015625000000e+04
-6.237551171875000000e+04
-6.238106250000000000e+04
-6.238058203125000000e+04
-6.238012109375000000e+04
-6.237933593750000000e+04
-6.236246875000000000e+04
-6.237222656250000000e+04
-6.236306640625000000e+04
-6.236492578125000000e+04