-2.139600753784179688e+01 -4.295694351196289062e+00 7.721699714660644531e+00 -4.295694351196289062e+00 -6.756261444091796875e+01 -1.423569965362548828e+01 7.721699714660644531e+00 -1.423569965362548828e+01 -4.287016868591308594e+00
-1.519822406768798828e+01 2.566442871093750000e+01 5.113363265991210938e+00 2.566442871093750000e+01 -9.752667546272277832e-01 3.732198238372802734e+00 5.113363265991210938e+00 3.732198238372802734e+00 -2.396004295349121094e+01
-1.191632080078125000e+01 -7.582278251647949219e+00 -8.834215164184570312e+00 -7.582278251647949219e+00 -9.382621765136718750e+00 -2.124542236328125000e+00 -8.834215164184570312e+00 -2.124542236328125000e+00 -4.854874420166015625e+01
-1.641095542907714844e+01 9.944217205047607422e-01 -1.557811021804809570e+00 9.944217205047607422e-01 -3.777452468872070312e+01 -9.722707748413085938e+00 -1.557811021804809570e+00 -9.722707748413085938e+00 -1.604558372497558594e+01
-2.518718528747558594e+01 3.237010478973388672e+00 -3.823373794555664062e+00 3.237010478973388672e+00 -1.688564300537109375e+01 7.184587001800537109e+00 -3.823373794555664062e+00 7.184587001800537109e+00 -2.643854713439941406e+01
-5.672145080566406250e+01 3.784683942794799805e+00 8.005578994750976562e+00 3.784683942794799805e+00 -8.153727531433105469e+00 -9.069672822952270508e-01 8.005578994750976562e+00 -9.069672822952270508e-01 -3.739313125610351562e+01
-3.951346206665039062e+01 -2.072981262207031250e+01 9.129806518554687500e+00 -2.072981262207031250e+01 -4.650431442260742188e+01 1.416177749633789062e+00 9.129806518554687500e+00 1.416177749633789062e+00 -5.408015823364257812e+01
-1.825449752807617188e+01 4.056050300598144531e+00 -8.022120475769042969e+00 4.056050300598144531e+00 -3.879450607299804688e+01 7.512567043304443359e-01 -8.022120475769042969e+00 7.512567043304443359e-01 -1.055027008056640625e+01
-3.496501159667968750e+01 -7.867010682821273804e-02 -1.208409976959228516e+01 -7.867010682821273804e-02 -4.530525207519531250e+01 2.418106460571289062e+01 -1.208409976959228516e+01 2.418106460571289062e+01 -4.797699737548828125e+01
-5.298390197753906250e+01 5.890026569366455078e+00 1.020721340179443359e+01 5.890026569366455078e+00 -7.113524436950683594e+00 -6.579980373382568359e+00 1.020721340179443359e+01 -6.579980373382568359e+00 -9.736492156982421875e+00
-2.496055793762207031e+01 8.936688423156738281e+00 -1.490546345710754395e+00 8.936688423156738281e+00 -2.926640510559082031e+01 7.271637439727783203e+00 -1.490546345710754395e+00 7.271637439727783203e+00 -2.427765369415283203e+00
-3.619464492797851562e+01 2.179069137573242188e+01 -1.080269050598144531e+01 2.179069137573242188e+01 -2.820866966247558594e+01 -2.345043182373046875e+01 -1.080269050598144531e+01 -2.345043182373046875e+01 4.911792755126953125e+00
-4.112745285034179688e+01 1.378828716278076172e+01 -2.992179870605468750e+00 1.378828716278076172e+01 -4.184293746948242188e+01 -1.026615047454833984e+01 -2.992179870605468750e+00 -1.026615047454833984e+01 -4.271843719482421875e+01
-3.530320358276367188e+01 -8.936294555664062500e+00 -5.565587997436523438e+00 -8.936294555664062500e+00 -3.782572174072265625e+01 5.601148605346679688e-01 -5.565587997436523438e+00 5.601148605346679688e-01 -3.742500686645507812e+01
4.810951232910156250e+00 -3.163757562637329102e+00 9.351332783699035645e-01 -3.163757562637329102e+00 3.878586530685424805e+00 9.389087677001953125e+00 9.351332783699035645e-01 9.389087677001953125e+00 -1.687393569946289062e+01
-2.849579429626464844e+01 -7.153782367706298828e+00 -5.788341522216796875e+00 -7.153782367706298828e+00 -1.381097316741943359e+01 -6.465048789978027344e+00 -5.788341522216796875e+00 -6.465048789978027344e+00 -3.118731117248535156e+01
7.192163467407226562e+00 2.069854927062988281e+01 1.513755798339843750e+01 2.069854927062988281e+01 1.500820159912109375e+01 8.244242668151855469e+00 1.513755798339843750e+01 8.244242668151855469e+00 -2.681263542175292969e+01
-6.193228530883789062e+01 1.082435131072998047e+01 5.825571060180664062e+00 1.082435131072998047e+01 -6.616112518310546875e+01 2.177002429962158203e+00 5.825571060180664062e+00 2.177002429962158203e+00 -1.976649856567382812e+01
-1.710591697692871094e+01 -2.456891822814941406e+01 5.178898811340332031e+00 -2.456891822814941406e+01 -3.304144668579101562e+01 2.045432806015014648e+00 5.178898811340332031e+00 2.045432806015014648e+00 -9.181009292602539062e+00
-7.529448509216308594e+00 3.770343303680419922e+00 -6.285755157470703125e+00 3.770343303680419922e+00 -2.669445228576660156e+01 1.129386806488037109e+01 -6.285755157470703125e+00 1.129386806488037109e+01 -2.905394363403320312e+01
-4.263355731964111328e+00 -4.259048938751220703e+00 -1.882967710494995117e+00 -4.259048938751220703e+00 -8.170181274414062500e+00 -5.875693798065185547e+00 -1.882967710494995117e+00 -5.875693798065185547e+00 -2.692457962036132812e+01
-1.067342567443847656e+01 -4.275144636631011963e-01 1.649581718444824219e+01 -4.275144636631011963e-01 -6.857611656188964844e+00 -3.544019460678100586e+00 1.649581718444824219e+01 -3.544019460678100586e+00 -7.433868885040283203e+00
-1.521416568756103516e+01 -1.697667503356933594e+01 -3.981831312179565430e+00 -1.697667503356933594e+01 -1.920004653930664062e+01 -7.546444416046142578e+00 -3.981831312179565430e+00 -7.546444416046142578e+00 -1.978307723999023438e+01
-2.479837226867675781e+01 -3.303476572036743164e-01 -1.822205352783203125e+01 -3.303476572036743164e-01 -3.449357604980468750e+01 -9.268689155578613281e+00 -1.822205352783203125e+01 -9.268689155578613281e+00 -2.844032287597656250e+01
-3.522735214233398438e+01 7.942286014556884766e+00 -3.128756761550903320e+00 7.942286014556884766e+00 3.784064054489135742e+00 9.118845939636230469e+00 -3.128756761550903320e+00 9.118845939636230469e+00 -4.673542404174804688e+01
-3.863312530517578125e+01 -1.520407676696777344e+01 2.126196479797363281e+01 -1.520407676696777344e+01 -3.224770355224609375e+01 -3.309825515747070312e+01 2.126196479797363281e+01 -3.309825515747070312e+01 7.372014999389648438e+00
-2.028247642517089844e+01 1.381217861175537109e+01 1.398322486877441406e+01 1.381217861175537109e+01 -4.638437271118164062e+01 -7.481274604797363281e+00 1.398322486877441406e+01 -7.481274604797363281e+00 -2.929208183288574219e+01
-3.081802368164062500e+01 1.019173240661621094e+01 -1.262991142272949219e+01 1.019173240661621094e+01 -4.012438583374023438e+01 -3.622994899749755859e+00 -1.262991142272949219e+01 -3.622994899749755859e+00 -4.963080978393554688e+01
-1.575163650512695312e+01 3.079786539077758789e+00 -5.962467193603515625e+00 3.079786539077758789e+00 -3.031963920593261719e+01 -5.881746292114257812e+00 -5.962467193603515625e+00 -5.881746292114257812e+00 -1.389661312103271484e+01
-3.150049591064453125e+01 -5.273464679718017578e+00 -6.479320049285888672e+00 -5.273464679718017578e+00 -3.911688232421875000e+01 3.366464996337890625e+01 -6.479320049285888672e+00 3.366464996337890625e+01 -3.284096908569335938e+01
-2.773637962341308594e+01 9.015895843505859375e+00 -3.585992336273193359e+00 9.015895843505859375e+00 -2.549596405029296875e+01 2.629727745056152344e+01 -3.585992336273193359e+00 2.629727745056152344e+01 -7.526793479919433594e+00
-3.158306121826171875e+00 -7.070318222045898438e+00 7.576975345611572266e+00 -7.070318222045898438e+00 -8.351601600646972656e+00 2.167259216308593750e+00 7.576975345611572266e+00 2.167259216308593750e+00 -3.091275787353515625e+01
-3.892085647583007812e+01 -8.535589218139648438e+00 -2.252580070495605469e+01 -8.535589218139648438e+00 -3.392396163940429688e+01 -1.266520786285400391e+01 -2.252580070495605469e+01 -1.266520786285400391e+01 -3.844802474975585938e+01
-4.325278472900390625e+01 2.116260766983032227e+00 -1.546127200126647949e+00 2.116260766983032227e+00 -3.138068962097167969e+01 1.200426340103149414e+00 -1.546127200126647949e+00 1.200426340103149414e+00 -2.917188072204589844e+01
-2.997320747375488281e+01 2.740696191787719727e+00 -6.461279869079589844e+00 2.740696191787719727e+00 -1.373365116119384766e+01 6.418115615844726562e+00 -6.461279869079589844e+00 6.418115615844726562e+00 -1.174453353881835938e+01
-1.845201492309570312e+01 6.240739822387695312e+00 -3.350034236907958984e+00 6.240739822387695312e+00 -2.165067672729492188e+01 -7.871466875076293945e-01 -3.350034236907958984e+00 -7.871466875076293945e-01 -2.833899307250976562e+01
-5.123519515991210938e+01 1.590968370437622070e+00 4.770515441894531250e+00 1.590968370437622070e+00 -4.535371780395507812e+01 1.498305797576904297e+01 4.770515441894531250e+00 1.498305797576904297e+01 -5.630520248413085938e+01
-3.473749160766601562e+01 1.052179574966430664e+00 -1.683928871154785156e+01 1.052179574966430664e+00 -9.772081375122070312e+00 -5.176414489746093750e+00 -1.683928871154785156e+01 -5.176414489746093750e+00 -5.199328064918518066e-01
-1.340878486633300781e+01 1.911503028869628906e+01 -7.698110580444335938e+00 1.911503028869628906e+01 -2.216805267333984375e+01 -9.153989791870117188e+00 -7.698110580444335938e+00 -9.153989791870117188e+00 -9.105567932128906250e+00
-4.058930206298828125e+01 -7.387243270874023438e+00 -1.625984668731689453e+00 -7.387243270874023438e+00 -2.459867858886718750e+01 1.256645393371582031e+01 -1.625984668731689453e+00 1.256645393371582031e+01 -1.300815296173095703e+01
-1.522812366485595703e+01 1.596773910522460938e+01 -1.690254020690917969e+01 1.596773910522460938e+01 -1.211465740203857422e+01 -7.200828790664672852e-01 -1.690254020690917969e+01 -7.200828790664672852e-01 -2.916922092437744141e+00
-2.327486801147460938e+01 5.043492317199707031e+00 -5.036014556884765625e+00 5.043492317199707031e+00 -2.093931770324707031e+01 1.771504759788513184e+00 -5.036014556884765625e+00 1.771504759788513184e+00 1.629029273986816406e+01
-5.172283554077148438e+01 -1.002815914154052734e+01 -5.684462070465087891e+00 -1.002815914154052734e+01 -6.006632614135742188e+01 1.114855647087097168e+00 -5.684462070465087891e+00 1.114855647087097168e+00 -4.019041442871093750e+01
-2.512817573547363281e+01 1.403189086914062500e+01 2.338429927825927734e+00 1.403189086914062500e+01 -5.638810157775878906e+00 -1.730396270751953125e+01 2.338429927825927734e+00 -1.730396270751953125e+01 -5.161272048950195312e+01
-4.914936828613281250e+01 -8.725193977355957031e+00 2.231380462646484375e+00 -8.725193977355957031e+00 -2.588661956787109375e+01 1.183419513702392578e+01 2.231380462646484375e+00 1.183419513702392578e+01 -6.221403884887695312e+01
-2.184053611755371094e+01 1.404493427276611328e+01 1.913325905799865723e+00 1.404493427276611328e+01 -9.003466606140136719e+00 -1.135787582397460938e+01 1.913325905799865723e+00 -1.135787582397460938e+01 -7.632111358642578125e+01
-1.682860565185546875e+01 -7.313425064086914062e+00 1.706706404685974121e+00 -7.313425064086914062e+00 -4.027558517456054688e+01 4.649592399597167969e+00 1.706706404685974121e+00 4.649592399597167969e+00 -4.965824127197265625e+01
-2.777471733093261719e+01 -1.446681785583496094e+01 -1.657318305969238281e+01 -1.446681785583496094e+01 -2.167533493041992188e+01 1.061442089080810547e+01 -1.657318305969238281e+01 1.061442089080810547e+01 -3.534792327880859375e+01
-3.725397872924804688e+01 3.557489156723022461e+00 -4.297767162322998047e+00 3.557489156723022461e+00 -1.303673553466796875e+01 -9.315478324890136719e+00 -4.297767162322998047e+00 -9.315478324890136719e+00 -1.950012207031250000e+01
-4.093211746215820312e+01 -1.427970409393310547e+01 -1.468789768218994141e+01 -1.427970409393310547e+01 -4.082572937011718750e+01 -1.563328838348388672e+01 -1.468789768218994141e+01 -1.563328838348388672e+01 -1.688656997680664062e+01
-2.516114807128906250e+01 2.630445241928100586e+00 -6.355249881744384766e+00 2.630445241928100586e+00 1.889076113700866699e+00 1.298998928070068359e+01 -6.355249881744384766e+00 1.298998928070068359e+01 -2.104591941833496094e+01
-3.486843490600585938e+01 -6.271929264068603516e+00 2.959178686141967773e+00 -6.271929264068603516e+00 -3.759024429321289062e+01 5.594399452209472656e+00 2.959178686141967773e+00 5.594399452209472656e+00 -4.010480880737304688e+01
-5.631396102905273438e+01 -2.137654113769531250e+01 -9.498596191406250000e+00 -2.137654113769531250e+01 -1.120741653442382812e+01 -2.450130844116210938e+01 -9.498596191406250000e+00 -2.450130844116210938e+01 -4.833402633666992188e+01
-2.779548072814941406e+01 1.017325782775878906e+01 2.672362327575683594e+01 1.017325782775878906e+01 -1.597425556182861328e+01 -4.298041343688964844e+00 2.672362327575683594e+01 -4.298041343688964844e+00 -4.694435501098632812e+01
-5.952008819580078125e+01 -1.017184734344482422e+01 2.301415681838989258e+00 -1.017184734344482422e+01 -2.786001396179199219e+01 -1.091037845611572266e+01 2.301415681838989258e+00 -1.091037845611572266e+01 -4.470930480957031250e+01
-3.310179901123046875e+01 8.405776977539062500e+00 6.071064949035644531e+00 8.405776977539062500e+00 -4.817576217651367188e+01 9.386380314826965332e-01 6.071064949035644531e+00 9.386380314826965332e-01 -2.546301841735839844e+01
-1.182491207122802734e+01 1.056665611267089844e+01 1.227242469787597656e+00 1.056665611267089844e+01 -1.787232017517089844e+01 -1.084346675872802734e+01 1.227242469787597656e+00 -1.084346675872802734e+01 -3.721327590942382812e+01
-1.840322685241699219e+01 6.669978141784667969e+00 -9.083852767944335938e+00 6.669978141784667969e+00 -4.313983535766601562e+01 -1.311446285247802734e+01 -9.083852767944335938e+00 -1.311446285247802734e+01 -4.687535476684570312e+01
-7.018686294555664062e+00 -2.434814870357513428e-01 -2.127585411071777344e+00 -2.434814870357513428e-01 -2.166732978820800781e+01 3.832837566733360291e-02 -2.127585411071777344e+00 3.832837566733360291e-02 -2.009870719909667969e+01
-3.099134635925292969e+01 -6.672280311584472656e+00 4.374743461608886719e+00 -6.672280311584472656e+00 -3.557167053222656250e+01 -2.114038944244384766e+00 4.374743461608886719e+00 -2.114038944244384766e+00 -3.680147552490234375e+01
-2.731602096557617188e+01 1.520944499969482422e+01 6.832791328430175781e+00 1.520944499969482422e+01 -6.768446922302246094e+00 -2.095617103576660156e+01 6.832791328430175781e+00 -2.095617103576660156e+01 -1.079727172851562500e+01
-1.834984207153320312e+01 8.543078422546386719e+00 -7.629294395446777344e+00 8.543078422546386719e+00 6.937839388847351074e-01 -8.219407081604003906e+00 -7.629294395446777344e+00 -8.219407081604003906e+00 -4.083856201171875000e+01
2.571500778198242188e+01 -1.687577486038208008e+00 -2.666762590408325195e+00 -1.687577486038208008e+00 -2.959742164611816406e+01 1.385584545135498047e+01 -2.666762590408325195e+00 1.385584545135498047e+01 1.654856491088867188e+01
-6.493897247314453125e+01 -1.256306648254394531e+01 1.297258019447326660e+00 -1.256306648254394531e+01 -3.758675384521484375e+01 -1.628533244132995605e+00 1.297258019447326660e+00 -1.628533244132995605e+00 -2.898017692565917969e+01
-6.124476242065429688e+01 6.039368629455566406e+00 -1.781172603368759155e-01 6.039368629455566406e+00 -1.440062904357910156e+01 1.940934658050537109e+00 -1.781172603368759155e-01 1.940934658050537109e+00 -5.256145858764648438e+01
-3.770956420898437500e+01 -1.215192031860351562e+01 -5.322680950164794922e+00 -1.215192031860351562e+01 -3.306789875030517578e+00 -3.849618196487426758e+00 -5.322680950164794922e+00 -3.849618196487426758e+00 6.530670166015625000e+00
-1.535224246978759766e+01 5.567800521850585938e+00 6.715085029602050781e+00 5.567800521850585938e+00 -2.490587043762207031e+01 1.414766597747802734e+01 6.715085029602050781e+00 1.414766597747802734e+01 -8.381649017333984375e+00
-1.221971988677978516e+01 2.041985130310058594e+01 -2.415584564208984375e+01 2.041985130310058594e+01 -4.042036056518554688e+01 -1.811858296394348145e+00 -2.415584564208984375e+01 -1.811858296394348145e+00 -3.466174697875976562e+01
-3.429057693481445312e+01 1.327120304107666016e+01 7.606179237365722656e+00 1.327120304107666016e+01 -7.018997192382812500e+00 -5.950105667114257812e+00 7.606179237365722656e+00 -5.950105667114257812e+00 -1.277853679656982422e+01
-3.015217590332031250e+01 -8.854427337646484375e+00 -1.379330754280090332e+00 -8.854427337646484375e+00 -5.035299682617187500e+01 8.443773269653320312e+00 -1.379330754280090332e+00 8.443773269653320312e+00 -2.018818855285644531e+01
6.688106060028076172e+00 5.050981044769287109e+00 1.599996376037597656e+01 5.050981044769287109e+00 -1.229711341857910156e+01 4.249023437500000000e+00 1.599996376037597656e+01 4.249023437500000000e+00 1.945362091064453125e+00
-2.979554939270019531e+01 -2.057477951049804688e+01 8.444743156433105469e+00 -2.057477951049804688e+01 -1.807925987243652344e+01 7.740965843200683594e+00 8.444743156433105469e+00 7.740965843200683594e+00 -3.819725799560546875e+01
-1.883758544921875000e+01 3.849364280700683594e+00 -8.226638793945312500e+00 3.849364280700683594e+00 -2.232366371154785156e+01 1.336661338806152344e+01 -8.226638793945312500e+00 1.336661338806152344e+01 -3.124330902099609375e+01
-2.411048698425292969e+01 1.612949943542480469e+01 -2.703992605209350586e+00 1.612949943542480469e+01 -2.488398551940917969e+01 -1.920741558074951172e+00 -2.703992605209350586e+00 -1.920741558074951172e+00 -4.553696060180664062e+01
-4.478614425659179688e+01 5.096496343612670898e-01 -2.533047294616699219e+01 5.096496343612670898e-01 -3.977853775024414062e+01 -4.022935867309570312e+00 -2.533047294616699219e+01 -4.022935867309570312e+00 -5.707142639160156250e+01
-2.548284912109375000e+01 6.966054439544677734e+00 -5.552489757537841797e+00 6.966054439544677734e+00 -3.888585281372070312e+01 -3.266460895538330078e-01 -5.552489757537841797e+00 -3.266460895538330078e-01 -4.733616638183593750e+01
6.128522396087646484e+00 2.409490966796875000e+01 1.152028656005859375e+01 2.409490966796875000e+01 -2.542904663085937500e+01 4.307790756225585938e+00 1.152028656005859375e+01 4.307790756225585938e+00 -3.504031372070312500e+01
-4.433356475830078125e+01 -2.170863914489746094e+01 -3.911113739013671875e+00 -2.170863914489746094e+01 -2.443419075012207031e+01 -1.034668159484863281e+01 -3.911113739013671875e+00 -1.034668159484863281e+01 -4.480093765258789062e+01
-4.674005508422851562e+01 6.046740055084228516e+00 -8.375523567199707031e+00 6.046740055084228516e+00 -3.808440780639648438e+01 -1.475103664398193359e+01 -8.375523567199707031e+00 -1.475103664398193359e+01 -2.274388313293457031e+01
-2.779109001159667969e+01 -2.337219810485839844e+01 -1.174008750915527344e+01 -2.337219810485839844e+01 -3.449104309082031250e+01 -1.506491947174072266e+01 -1.174008750915527344e+01 -1.506491947174072266e+01 -4.727324295043945312e+01
-3.539897918701171875e+01 1.173655509948730469e+01 9.203660011291503906e+00 1.173655509948730469e+01 -2.293305778503417969e+01 5.985328674316406250e+00 9.203660011291503906e+00 5.985328674316406250e+00 -1.049177527427673340e+00
-2.672899436950683594e+01 3.897733688354492188e+00 5.332460403442382812e+00 3.897733688354492188e+00 -5.707432556152343750e+01 1.066974258422851562e+01 5.332460403442382812e+00 1.066974258422851562e+01 -5.633836364746093750e+01
-2.038314628601074219e+01 -8.104579925537109375e+00 -1.484716129302978516e+01 -8.104579925537109375e+00 5.251265525817871094e+00 2.328582191467285156e+01 -1.484716129302978516e+01 2.328582191467285156e+01 -7.347288608551025391e+00
-4.632040405273437500e+01 8.228693962097167969e+00 -1.151830768585205078e+01 8.228693962097167969e+00 -3.863723754882812500e+01 -4.944920063018798828e+00 -1.151830768585205078e+01 -4.944920063018798828e+00 -5.818434524536132812e+01
-5.778643035888671875e+01 9.030603408813476562e+00 8.994878768920898438e+00 9.030603408813476562e+00 -2.886328125000000000e+01 2.537120342254638672e+00 8.994878768920898438e+00 2.537120342254638672e+00 -3.643435668945312500e+01
-5.941300201416015625e+01 -1.910508722066879272e-01 -1.457341003417968750e+01 -1.910508722066879272e-01 -3.565842437744140625e+01 -2.137398004531860352e+00 -1.457341003417968750e+01 -2.137398004531860352e+00 -3.595679855346679688e+01
-1.069754886627197266e+01 -8.394832611083984375e+00 7.783672809600830078e+00 -8.394832611083984375e+00 -3.620444107055664062e+01 -4.173979163169860840e-01 7.783672809600830078e+00 -4.173979163169860840e-01 -2.953934288024902344e+01
-1.380932521820068359e+01 1.546572017669677734e+01 -2.722339391708374023e+00 1.546572017669677734e+01 -4.614547348022460938e+01 -1.001716518402099609e+01 -2.722339391708374023e+00 -1.001716518402099609e+01 -2.039867782592773438e+01
-6.883057403564453125e+01 -1.499775028228759766e+01 -5.659527778625488281e+00 -1.499775028228759766e+01 1.084647750854492188e+01 1.065814113616943359e+01 -5.659527778625488281e+00 1.065814113616943359e+01 -9.835631370544433594e+00
-2.986706161499023438e+01 -1.650060081481933594e+01 4.221769571304321289e-01 -1.650060081481933594e+01 -1.264923954010009766e+01 -1.271125698089599609e+01 4.221769571304321289e-01 -1.271125698089599609e+01 -4.171917343139648438e+01
-7.510415554046630859e+00 5.009263038635253906e+00 -5.396744728088378906e+00 5.009263038635253906e+00 -1.872724151611328125e+01 4.753875255584716797e+00 -5.396744728088378906e+00 4.753875255584716797e+00 -4.138746261596679688e+01
-4.037210845947265625e+01 7.847442626953125000e+00 1.591939830780029297e+01 7.847442626953125000e+00 -1.638982391357421875e+01 -4.250306606292724609e+00 1.591939830780029297e+01 -4.250306606292724609e+00 -2.148257446289062500e+01
-4.489433670043945312e+01 5.893935680389404297e+00 -7.911322116851806641e+00 5.893935680389404297e+00 -2.441677474975585938e+01 1.219413518905639648e+00 -7.911322116851806641e+00 1.219413518905639648e+00 -6.717505455017089844e+00
-2.828561401367187500e+01 1.544450092315673828e+01 1.990370559692382812e+01 1.544450092315673828e+01 -4.492809295654296875e+01 -1.396105957031250000e+01 1.990370559692382812e+01 -1.396105957031250000e+01 -2.992934799194335938e+01
-3.517967224121093750e+01 7.641857862472534180e-01 -9.996928215026855469e+00 7.641857862472534180e-01 -2.102095222473144531e+01 -3.631786108016967773e+00 -9.996928215026855469e+00 -3.631786108016967773e+00 -2.537331199645996094e+01
-1.416591262817382812e+01 2.991323471069335938e+00 1.188374042510986328e+01 2.991323471069335938e+00 -1.828196525573730469e+01 -1.216800332069396973e+00 1.188374042510986328e+01 -1.216800332069396973e+00 -4.535554885864257812e+01
-2.735657119750976562e+01 -5.265189647674560547e+00 1.758030128479003906e+01 -5.265189647674560547e+00 -2.897860908508300781e+01 -2.506996631622314453e+00 1.758030128479003906e+01 -2.506996631622314453e+00 1.344616699218750000e+01
-3.964220046997070312e+01 -3.736717224121093750e+00 -1.488500881195068359e+01 -3.736717224121093750e+00 -3.173956871032714844e+01 -4.456036090850830078e+00 -1.488500881195068359e+01 -4.456036090850830078e+00 -2.305343246459960938e+01
-5.271610641479492188e+01 -2.910652160644531250e+00 -3.614659547805786133e+00 -2.910652160644531250e+00 7.086614131927490234e+00 6.175271034240722656e+00 -3.614659547805786133e+00 6.175271034240722656e+00 -2.925629615783691406e+01
-2.613733291625976562e+01 1.513972473144531250e+01 -2.623114347457885742e+00 1.513972473144531250e+01 -2.483544158935546875e+01 -5.018391132354736328e+00 -2.623114347457885742e+00 -5.018391132354736328e+00 -1.529747104644775391e+01
-3.224798583984375000e+01 -8.370770454406738281e+00 4.523805141448974609e+00 -8.370770454406738281e+00 -3.210953140258789062e+01 4.547642707824707031e+00 4.523805141448974609e+00 4.547642707824707031e+00 -3.163860511779785156e+01
-1.158945655822753906e+01 -1.756767272949218750e+01 -1.031877517700195312e+01 -1.756767272949218750e+01 -2.003984642028808594e+01 6.024275302886962891e+00 -1.031877517700195312e+01 6.024275302886962891e+00 -3.811232376098632812e+01
-1.381245326995849609e+01 -6.397390365600585938e+00 7.798564910888671875e+00 -6.397390365600585938e+00 -3.360618209838867188e+01 -1.821959877014160156e+01 7.798564910888671875e+00 -1.821959877014160156e+01 -1.618302917480468750e+01
-2.527187919616699219e+01 1.708663368225097656e+01 5.673807144165039062e+00 1.708663368225097656e+01 -3.470249176025390625e+01 -2.347618579864501953e+00 5.673807144165039062e+00 -2.347618579864501953e+00 -5.229904937744140625e+01
-2.101906013488769531e+01 5.724318504333496094e+00 -3.699513375759124756e-01 5.724318504333496094e+00 -3.710692596435546875e+01 6.351006984710693359e+00 -3.699513375759124756e-01 6.351006984710693359e+00 -4.557558441162109375e+01
-1.413038158416748047e+01 4.119036674499511719e+00 -4.015777587890625000e+00 4.119036674499511719e+00 -2.362338256835937500e+01 6.420227050781250000e+00 -4.015777587890625000e+00 6.420227050781250000e+00 -5.545952987670898438e+01
-1.268749523162841797e+01 -1.030589962005615234e+01 -1.784657835960388184e+00 -1.030589962005615234e+01 -2.042685508728027344e+01 1.284638309478759766e+01 -1.784657835960388184e+00 1.284638309478759766e+01 -2.574721717834472656e+01
3.249199390411376953e+00 4.370752334594726562e+00 9.224131584167480469e+00 4.370752334594726562e+00 5.736619949340820312e+00 3.649061679840087891e+00 9.224131584167480469e+00 3.649061679840087891e+00 -5.060962677001953125e+01
-9.144207954406738281e+00 -1.836252403259277344e+01 5.160211086273193359e+00 -1.836252403259277344e+01 -3.865031814575195312e+01 -3.374857425689697266e+00 5.160211086273193359e+00 -3.374857425689697266e+00 -2.197922325134277344e+01
-3.694698333740234375e+01 1.357014560699462891e+01 1.822058868408203125e+01 1.357014560699462891e+01 -3.086068344116210938e+01 7.467657566070556641e+00 1.822058868408203125e+01 7.467657566070556641e+00 -1.069343852996826172e+01
-7.572700500488281250e+00 4.021948337554931641e+00 6.249283790588378906e+00 4.021948337554931641e+00 -2.787344741821289062e+01 -9.704029083251953125e+00 6.249283790588378906e+00 -9.704029083251953125e+00 -1.202044105529785156e+01
-3.058118057250976562e+01 -1.030883121490478516e+01 1.443869471549987793e+00 -1.030883121490478516e+01 -5.699475860595703125e+01 1.091867637634277344e+01 1.443869471549987793e+00 1.091867637634277344e+01 -3.805031967163085938e+01
-3.674162292480468750e+01 -6.134737014770507812e+00 -1.204250693321228027e+00 -6.134737014770507812e+00 -3.071769523620605469e+01 -4.793308734893798828e+00 -1.204250693321228027e+00 -4.793308734893798828e+00 -2.786669540405273438e+01
-3.692141342163085938e+01 -7.584599971771240234e+00 1.551520538330078125e+01 -7.584599971771240234e+00 -1.402577686309814453e+01 -1.185853004455566406e+01 1.551520538330078125e+01 -1.185853004455566406e+01 -1.672314071655273438e+01
-3.227748489379882812e+01 3.780286610126495361e-01 8.691350936889648438e+00 3.780286610126495361e-01 -3.958617925643920898e+00 -1.120107746124267578e+01 8.691350936889648438e+00 -1.120107746124267578e+01 -2.660798263549804688e+01
-6.593824768066406250e+01 8.108395576477050781e+00 -5.451522350311279297e+00 8.108395576477050781e+00 -3.802984619140625000e+01 6.355660915374755859e+00 -5.451522350311279297e+00 6.355660915374755859e+00 -2.943826675415039062e+01
2.696371316909790039e+00 -7.563459396362304688e+00 1.026863861083984375e+01 -7.563459396362304688e+00 -2.330753517150878906e+01 1.158518123626708984e+01 1.026863861083984375e+01 1.158518123626708984e+01 -1.684509277343750000e+01
1.320147418975830078e+01 -1.095597648620605469e+01 -1.082619285583496094e+01 -1.095597648620605469e+01 -2.394331741333007812e+01 -1.843324470520019531e+01 -1.082619285583496094e+01 -1.843324470520019531e+01 -1.657761192321777344e+01
-3.634281539916992188e+01 2.308769941329956055e+00 2.000882530212402344e+01 2.308769941329956055e+00 -2.569359588623046875e+01 -1.156163096427917480e+00 2.000882530212402344e+01 -1.156163096427917480e+00 -3.305944824218750000e+01
-3.826155090332031250e+01 -5.757399797439575195e-01 1.012703180313110352e+00 -5.757399797439575195e-01 -3.581880187988281250e+01 -4.604760408401489258e-01 1.012703180313110352e+00 -4.604760408401489258e-01 -4.719104766845703125e+01
-1.809301948547363281e+01 4.294703006744384766e+00 1.386362791061401367e+00 4.294703006744384766e+00 -1.109272003173828125e+01 -3.589478015899658203e+00 1.386362791061401367e+00 -3.589478015899658203e+00 -3.218885803222656250e+01
-2.032130622863769531e+01 -6.867560863494873047e+00 2.793148279190063477e+00 -6.867560863494873047e+00 -4.833733749389648438e+01 1.489658474922180176e+00 2.793148279190063477e+00 1.489658474922180176e+00 1.610923576354980469e+01
3.276136875152587891e+00 -1.338223361968994141e+01 2.449976950883865356e-01 -1.338223361968994141e+01 -1.178960874676704407e-01 -3.077502489089965820e+00 2.449976950883865356e-01 -3.077502489089965820e+00 -1.987356066703796387e+00
-1.510009860992431641e+01 -1.056195831298828125e+01 -9.298850059509277344e+00 -1.056195831298828125e+01 -5.099797439575195312e+01 7.969159603118896484e+00 -9.298850059509277344e+00 7.969159603118896484e+00 -2.772620582580566406e+01
-4.387505340576171875e+01 -1.476163768768310547e+01 -1.290771293640136719e+01 -1.476163768768310547e+01 -4.134741973876953125e+01 -5.185600280761718750e+00 -1.290771293640136719e+01 -5.185600280761718750e+00 -4.863446426391601562e+01
-3.720790481567382812e+01 8.410289764404296875e+00 1.109762763977050781e+01 8.410289764404296875e+00 -3.294370269775390625e+01 8.131786346435546875e+00 1.109762763977050781e+01 8.131786346435546875e+00 -3.675783538818359375e+01
-4.334023284912109375e+01 -1.004163074493408203e+01 4.820382595062255859e+00 -1.004163074493408203e+01 -3.315958404541015625e+01 2.103767967224121094e+01 4.820382595062255859e+00 2.103767967224121094e+01 -8.361883163452148438e+00
-3.901060104370117188e+01 8.455293655395507812e+00 -1.257611155509948730e+00 8.455293655395507812e+00 -3.500462722778320312e+01 -2.142616510391235352e+00 -1.257611155509948730e+00 -2.142616510391235352e+00 -5.839838409423828125e+01
-4.126514053344726562e+01 -3.577004745602607727e-02 9.314804077148437500e+00 -3.577004745602607727e-02 -1.880496597290039062e+01 1.691004157066345215e+00 9.314804077148437500e+00 1.691004157066345215e+00 -3.844179916381835938e+01