-6.085848437500000000e+04
-6.083617187500000000e+04
-6.083275000000000000e+04
-6.082535156250000000e+04
-6.082916015625000000e+04
-6.082816015625000000e+04
-6.082825781250000000e+04
-6.082411328125000000e+04
-6.082524218750000000e+04
-6.083045703125000000e+04
-6.083089843750000000e+04
-6.082951562500000000e+04
-6.083316796875000000e+04
-6.083027343750000000e+04
-6.083062890625000000e+04
-6.082635937500000000e+04
-6.082683593750000000e+04
-6.082867968750000000e+04
-6.082485546875000000e+04
-6.083170703125000000e+04
-6.083177343750000000e+04
-6.083076562500000000e+04
-6.083060156250000000e+04
-6.083044531250000000e+04
-6.083085156250000000e+04
-6.083229687500000000e+04
-6.085262890625000000e+04
-6.083815234375000000e+04
-6.083221093750000000e+04
-6.082668750000000000e+04
-6.082523828125000000e+04
-6.082450781250000000e+04
-6.083056250000000000e+04
-6.082888281250000000e+04
-6.083021093750000000e+04
-6.082332421875000000e+04
-6.082552343750000000e+04
-6.082916015625000000e+04
-6.082812890625000000e+04
-6.082655859375000000e+04
-6.082777343750000000e+04
-6.083353906250000000e+04
-6.083443359375000000e+04
-6.083213281250000000e+04
-6.082898437500000000e+04
-6.082822656250000000e+04
-6.082449609375000000e+04
-6.082690625000000000e+04
-6.082789453125000000e+04
-6.089221875000000000e+04
-6.085420703125000000e+04
-6.084937500000000000e+04
-6.082690625000000000e+04
-6.081753906250000000e+04
-6.081260546875000000e+04
-6.080815234375000000e+04
-6.081334375000000000e+04
-6.081960156250000000e+04
-6.081001171875000000e+04
-6.081428125000000000e+04
-6.081369531250000000e+04
-6.081708203125000000e+04
-6.081805468750000000e+04
-6.081507421875000000e+04
-6.081447265625000000e+04
-6.081257031250000000e+04
-6.081252343750000000e+04
-6.081910546875000000e+04
-6.081144531250000000e+04
-6.089221875000000000e+04
-6.084021875000000000e+04
-6.082369140625000000e+04
-6.081984375000000000e+04
-6.081544921875000000e+04
-6.082012890625000000e+04
-6.081718359375000000e+04
-6.081751953125000000e+04
-6.081177734375000000e+04
-6.081546484375000000e+04
-6.081029687500000000e+04
-6.081165234375000000e+04
-6.081018750000000000e+04
-6.081292187500000000e+04
-6.081186718750000000e+04
-6.081142187500000000e+04
-6.081446484375000000e+04
-6.081399218750000000e+04
-6.080840234375000000e+04
-6.080506250000000000e+04
-6.081158203125000000e+04
-6.080938281250000000e+04
-6.089221875000000000e+04
-6.084301953125000000e+04
-6.082340625000000000e+04
-6.081542578125000000e+04
-6.080748046875000000e+04
-6.081148046875000000e+04
-6.079951562500000000e+04
-6.080416015625000000e+04
-6.080107031250000000e+04
-6.080671093750000000e+04
-6.080543750000000000e+04
-6.080285937500000000e+04
-6.080228906250000000e+04
-6.080202734375000000e+04
-6.080894531250000000e+04
-6.080289453125000000e+04
-6.080037109375000000e+04
-6.079654687500000000e+04
-6.080287890625000000e+04
-6.080341406250000000e+04
-6.080161718750000000e+04
-6.080125781250000000e+04
-6.079885937500000000e+04
-6.085267578125000000e+04
-6.084356250000000000e+04
-6.082528515625000000e+04
-6.080757812500000000e+04
-6.080814843750000000e+04
-6.080961718750000000e+04
-6.080389843750000000e+04
-6.080085937500000000e+04
-6.080573437500000000e+04
-6.080792578125000000e+04
-6.080891796875000000e+04
-6.080510156250000000e+04
-6.080280859375000000e+04
-6.080555859375000000e+04
-6.081100781250000000e+04
-6.080873437500000000e+04
-6.080630859375000000e+04
-6.080007421875000000e+04
-6.079832421875000000e+04
-6.080871484375000000e+04
-6.080653906250000000e+04
-6.080852343750000000e+04
-6.080569140625000000e+04
-6.080560546875000000e+04
-6.089201171875000000e+04
-6.085932031250000000e+04
-6.084978125000000000e+04
-6.083810937500000000e+04
-6.082801171875000000e+04
-6.082667187500000000e+04
-6.082971484375000000e+04
-6.083031250000000000e+04
-6.083000390625000000e+04
-6.083242578125000000e+04
-6.082699609375000000e+04
-6.082993359375000000e+04
-6.082979687500000000e+04
-6.082607812500000000e+04
-6.082982812500000000e+04
-6.082867187500000000e+04
-6.082787109375000000e+04
-6.082725390625000000e+04
-6.082144140625000000e+04
-6.082298437500000000e+04
-6.082923437500000000e+04
-6.083134375000000000e+04
-6.082727343750000000e+04
-6.082693750000000000e+04
-6.089201171875000000e+04
-6.085798437500000000e+04
-6.082912890625000000e+04
-6.082614843750000000e+04
-6.082370312500000000e+04
-6.082817578125000000e+04
-6.082528906250000000e+04
-6.082664453125000000e+04
-6.082900000000000000e+04
-6.082662500000000000e+04
-6.082703515625000000e+04
-6.083122265625000000e+04
-6.082918359375000000e+04
-6.082891796875000000e+04
-6.082927734375000000e+04
-6.083155468750000000e+04
-6.083087109375000000e+04
-6.082800000000000000e+04
-6.082756250000000000e+04
-6.082720703125000000e+04
-6.082790625000000000e+04
-6.083005078125000000e+04
-6.082835937500000000e+04
-6.082859765625000000e+04
-6.082798437500000000e+04
-6.082536328125000000e+04
-6.083500781250000000e+04
-6.081891015625000000e+04
-6.081413671875000000e+04
-6.081314843750000000e+04
-6.081238671875000000e+04
-6.081322656250000000e+04
-6.081660546875000000e+04
-6.081489062500000000e+04
-6.081719531250000000e+04
-6.081515625000000000e+04
-6.081062109375000000e+04
-6.081059765625000000e+04
-6.081094531250000000e+04
-6.081432421875000000e+04
-6.081096093750000000e+04
-6.081134765625000000e+04
-6.082401562500000000e+04
-6.081025000000000000e+04
-6.081046875000000000e+04
-6.081901171875000000e+04
-6.082097656250000000e+04
-6.081587500000000000e+04
-6.081297265625000000e+04
-6.081687890625000000e+04
-6.081848046875000000e+04
-6.081545703125000000e+04
-6.081694140625000000e+04
-6.081960546875000000e+04
-6.081357812500000000e+04
-6.081592578125000000e+04
-6.081117578125000000e+04
-6.081158203125000000e+04
-6.081624218750000000e+04
-6.081714062500000000e+04
-6.080565625000000000e+04
-6.081158203125000000e+04
-6.081490234375000000e+04
-6.080232031250000000e+04
-6.080990625000000000e+04
-6.080494140625000000e+04
-6.080548437500000000e+04
-6.079969921875000000e+04
-6.079657421875000000e+04
-6.080077734375000000e+04
-6.080259765625000000e+04
-6.078996875000000000e+04
-6.080183984375000000e+04
-6.080003515625000000e+04
-6.079460546875000000e+04
-6.079986328125000000e+04
-6.079524218750000000e+04
-6.089201171875000000e+04
-6.080539843750000000e+04
-6.080851562500000000e+04
-6.080509375000000000e+04
-6.080173828125000000e+04
-6.079999218750000000e+04
-6.080746875000000000e+04
-6.080237500000000000e+04
-6.080148046875000000e+04
-6.079947265625000000e+04
-6.079808593750000000e+04
-6.079369921875000000e+04
-6.079288281250000000e+04
-6.079436328125000000e+04
-6.079677343750000000e+04
-6.079050390625000000e+04
-6.078872265625000000e+04
-6.078528515625000000e+04
-6.078738281250000000e+04
-6.079194921875000000e+04
-6.079641406250000000e+04
-6.079623437500000000e+04
-6.079330859375000000e+04
-6.086260937500000000e+04
-6.083502734375000000e+04
-6.082585937500000000e+04
-6.082444140625000000e+04
-6.082333984375000000e+04
-6.082818750000000000e+04
-6.082317578125000000e+04
-6.082922656250000000e+04
-6.083155468750000000e+04
-6.082304296875000000e+04
-6.082541796875000000e+04
-6.082707421875000000e+04
-6.083099218750000000e+04
-6.083343359375000000e+04
-6.083209375000000000e+04
-6.082853906250000000e+04
-6.082859375000000000e+04
-6.082861328125000000e+04
-6.083026953125000000e+04
-6.083097656250000000e+04
-6.082713671875000000e+04
-6.082352343750000000e+04
-6.082665625000000000e+04
-6.081945703125000000e+04
-6.082305078125000000e+04
-6.082561718750000000e+04
-6.082268750000000000e+04
-6.082422265625000000e+04
-6.089219140625000000e+04
-6.085949218750000000e+04
-6.083642968750000000e+04
-6.082911328125000000e+04
-6.082975000000000000e+04
-6.083080468750000000e+04
-6.082386718750000000e+04
-6.082495703125000000e+04
-6.082151562500000000e+04
-6.082267187500000000e+04
-6.082541796875000000e+04
-6.082312890625000000e+04
-6.082443359375000000e+04
-6.082554296875000000e+04
-6.082628906250000000e+04
-6.082825781250000000e+04
-6.082691796875000000e+04
-6.082616015625000000e+04
-6.082347265625000000e+04
-6.082333984375000000e+04
-6.082551562500000000e+04
-6.083092968750000000e+04
-6.083195312500000000e+04
-6.082525781250000000e+04
-6.081805468750000000e+04
-6.085598828125000000e+04
-6.084300000000000000e+04
-6.082355078125000000e+04
-6.081982031250000000e+04
-6.081566796875000000e+04
-6.082143750000000000e+04
-6.081860156250000000e+04
-6.081335937500000000e+04
-6.081917968750000000e+04
-6.082141796875000000e+04
-6.082181640625000000e+04
-6.081943359375000000e+04
-6.081097656250000000e+04
-6.081223046875000000e+04
-6.081478125000000000e+04
-6.081189062500000000e+04
-6.081398437500000000e+04
-6.081508203125000000e+04
-6.081849609375000000e+04
-6.081007812500000000e+04
-6.081478125000000000e+04
-6.081867968750000000e+04
-6.081451562500000000e+04
-6.081603515625000000e+04
-6.081124609375000000e+04
-6.081070312500000000e+04
-6.081196484375000000e+04
-6.081285937500000000e+04
-6.080867968750000000e+04
-6.080688671875000000e+04
-6.089219140625000000e+04
-6.084817578125000000e+04
-6.083438281250000000e+04
-6.082896484375000000e+04
-6.082073828125000000e+04
-6.081267968750000000e+04
-6.081823046875000000e+04
-6.081486328125000000e+04
-6.081120312500000000e+04
-6.081066796875000000e+04
-6.081550000000000000e+04
-6.080994531250000000e+04
-6.080737890625000000e+04
-6.081277343750000000e+04
-6.081450781250000000e+04
-6.081752734375000000e+04
-6.081340234375000000e+04
-6.081618359375000000e+04
-6.081302734375000000e+04
-6.081531640625000000e+04
-6.081201953125000000e+04
-6.081950781250000000e+04
-6.081616796875000000e+04
-6.081692578125000000e+04
-6.081530468750000000e+04
-6.081962500000000000e+04
-6.084546875000000000e+04
-6.082426171875000000e+04
-6.082409765625000000e+04
-6.079708984375000000e+04
-6.079963671875000000e+04
-6.079671093750000000e+04
-6.079144921875000000e+04
-6.079500390625000000e+04
-6.078868750000000000e+04
-6.079226562500000000e+04
-6.079257421875000000e+04
-6.079610546875000000e+04
-6.078754687500000000e+04
-6.078948437500000000e+04
-6.079030859375000000e+04
-6.089219140625000000e+04
-6.085410546875000000e+04
-6.081022656250000000e+04
-6.080446484375000000e+04
-6.080551562500000000e+04
-6.080886328125000000e+04
-6.080372265625000000e+04
-6.080245703125000000e+04
-6.080899218750000000e+04
-6.079735546875000000e+04
-6.080216015625000000e+04
-6.080080859375000000e+04
-6.080555468750000000e+04
-6.080655859375000000e+04
-6.080399218750000000e+04
-6.080490625000000000e+04
-6.079701953125000000e+04
-6.084593359375000000e+04
-6.083817578125000000e+04
-6.082380468750000000e+04
-6.082769140625000000e+04
-6.082901562500000000e+04
-6.082362890625000000e+04
-6.082782812500000000e+04
-6.082346093750000000e+04
-6.082730468750000000e+04
-6.082803906250000000e+04
-6.082582812500000000e+04
-6.082806640625000000e+04
-6.082408984375000000e+04
-6.082455468750000000e+04
-6.082627343750000000e+04
-6.082636328125000000e+04
-6.082545312500000000e+04
-6.082376562500000000e+04
-6.082598046875000000e+04
-6.082858593750000000e+04
-6.082709375000000000e+04
-6.082633593750000000e+04
-6.086070312500000000e+04
-6.084750390625000000e+04
-6.083178515625000000e+04
-6.083057421875000000e+04
-6.083182421875000000e+04
-6.083314062500000000e+04
-6.083170312500000000e+04
-6.083366406250000000e+04
-6.082861718750000000e+04
-6.082810546875000000e+04
-6.082586328125000000e+04
-6.083108984375000000e+04
-6.083033984375000000e+04
-6.082775781250000000e+04
-6.082607812500000000e+04
-6.082586718750000000e+04
-6.082700000000000000e+04
-6.082548437500000000e+04
-6.082257421875000000e+04
-6.082241406250000000e+04
-6.083271093750000000e+04
-6.082861328125000000e+04
-6.082773828125000000e+04
-6.082816015625000000e+04
-6.082788281250000000e+04
-6.082566796875000000e+04
-6.082644140625000000e+04
-6.082661718750000000e+04
-6.082910546875000000e+04
-6.082757031250000000e+04
-6.089325390625000000e+04
-6.085785156250000000e+04
-6.083859765625000000e+04
-6.080960937500000000e+04
-6.081989453125000000e+04
-6.081818750000000000e+04
-6.081925781250000000e+04
-6.081370312500000000e+04
-6.082019531250000000e+04
-6.081358203125000000e+04
-6.081379687500000000e+04
-6.081789453125000000e+04
-6.081748828125000000e+04
-6.080808984375000000e+04
-6.081569140625000000e+04
-6.081308984375000000e+04
-6.080993359375000000e+04
-6.081302343750000000e+04
-6.081332812500000000e+04
-6.081046484375000000e+04
-6.081428125000000000e+04
-6.089325390625000000e+04
-6.085865234375000000e+04
-6.085080078125000000e+04
-6.084085546875000000e+04
-6.082443359375000000e+04
-6.081741015625000000e+04
-6.081473046875000000e+04
-6.081560937500000000e+04
-6.081472265625000000e+04
-6.081643750000000000e+04
-6.081434765625000000e+04
-6.081409375000000000e+04
-6.081282421875000000e+04
-6.081230468750000000e+04
-6.081679687500000000e+04
-6.081881250000000000e+04
-6.081972656250000000e+04
-6.081456250000000000e+04
-6.081482421875000000e+04
-6.081810546875000000e+04
-6.081522656250000000e+04
-6.081341406250000000e+04
-6.081705859375000000e+04
-6.081487109375000000e+04
-6.081746484375000000e+04
-6.081286328125000000e+04
-6.081450390625000000e+04
-6.089325390625000000e+04
-6.080897265625000000e+04
-6.080280078125000000e+04
-6.080180468750000000e+04
-6.080648046875000000e+04
-6.079986328125000000e+04
-6.079873437500000000e+04
-6.080298046875000000e+04
-6.079789062500000000e+04
-6.079908593750000000e+04
-6.079520312500000000e+04
-6.079872265625000000e+04
-6.079619140625000000e+04
-6.079185156250000000e+04
-6.079427343750000000e+04
-6.079691406250000000e+04
-6.079175390625000000e+04
-6.089325390625000000e+04
-6.085350390625000000e+04
-6.084479296875000000e+04
-6.082962500000000000e+04
-6.081873437500000000e+04
-6.081007031250000000e+04
-6.080616015625000000e+04
-6.080085937500000000e+04
-6.080241015625000000e+04
-6.080392187500000000e+04
-6.080316796875000000e+04
-6.080067968750000000e+04
-6.079573828125000000e+04
-6.078748437500000000e+04
-6.079926562500000000e+04
-6.079565234375000000e+04
-6.079905859375000000e+04
-6.079473828125000000e+04
-6.078817968750000000e+04
-6.079044921875000000e+04
-6.089408984375000000e+04
-6.085285156250000000e+04
-6.083358984375000000e+04
-6.082707812500000000e+04
-6.083333984375000000e+04
-6.082818359375000000e+04
-6.082451562500000000e+04
-6.082566015625000000e+04
-6.082433203125000000e+04
-6.082946484375000000e+04
-6.083212500000000000e+04
-6.083058203125000000e+04
-6.082899609375000000e+04
-6.082722265625000000e+04
-6.083401562500000000e+04
-6.083207812500000000e+04
-6.082275390625000000e+04
-6.082614453125000000e+04
-6.082945703125000000e+04
-6.082505468750000000e+04
-6.082835156250000000e+04
-6.082701953125000000e+04
-6.082896484375000000e+04
-6.083324218750000000e+04
-6.083188671875000000e+04
-6.083276953125000000e+04
-6.082830859375000000e+04
-6.086163671875000000e+04
-6.085203125000000000e+04
-6.084830078125000000e+04
-6.084013281250000000e+04
-6.082630859375000000e+04
-6.082785937500000000e+04
-6.083107812500000000e+04
-6.083023046875000000e+04
-6.082487109375000000e+04
-6.082788281250000000e+04
-6.082702734375000000e+04
-6.082651171875000000e+04
-6.083061328125000000e+04
-6.082171875000000000e+04
-6.082250390625000000e+04
-6.082388671875000000e+04
-6.082875000000000000e+04
-6.082959765625000000e+04
-6.082665234375000000e+04
-6.082646093750000000e+04
-6.082942187500000000e+04
-6.082860937500000000e+04
-6.082989843750000000e+04
-6.082676171875000000e+04
-6.082797265625000000e+04
-6.082596093750000000e+04
-6.089408984375000000e+04
-6.084564453125000000e+04
-6.084131250000000000e+04
-6.082372265625000000e+04
-6.081579687500000000e+04
-6.081800781250000000e+04
-6.082441015625000000e+04
-6.081250781250000000e+04
-6.081396484375000000e+04
-6.081340625000000000e+04
-6.082354296875000000e+04
-6.081408593750000000e+04
-6.081512500000000000e+04
-6.081618359375000000e+04
-6.081782031250000000e+04
-6.081829687500000000e+04
-6.081825390625000000e+04
-6.081225390625000000e+04
-6.081261718750000000e+04
-6.081476953125000000e+04
-6.082004687500000000e+04
-6.081105859375000000e+04
-6.085837109375000000e+04
-6.084805468750000000e+04
-6.084073046875000000e+04
-6.082060546875000000e+04
-6.081642968750000000e+04
-6.081380078125000000e+04
-6.081493750000000000e+04
-6.082086328125000000e+04
-6.082107421875000000e+04
-6.081805078125000000e+04
-6.081522656250000000e+04
-6.081744921875000000e+04
-6.081942578125000000e+04
-6.082012890625000000e+04
-6.081547656250000000e+04
-6.081876562500000000e+04
-6.081691796875000000e+04
-6.081687500000000000e+04
-6.081571093750000000e+04
-6.081625781250000000e+04
-6.081934765625000000e+04
-6.081996093750000000e+04
-6.082245703125000000e+04
-6.082242578125000000e+04
-6.081730078125000000e+04
-6.089408203125000000e+04
-6.085407421875000000e+04
-6.083456250000000000e+04
-6.082121875000000000e+04
-6.080881640625000000e+04
-6.080723046875000000e+04
-6.080601171875000000e+04
-6.080650390625000000e+04
-6.080759765625000000e+04
-6.080129296875000000e+04
-6.080074609375000000e+04
-6.080125781250000000e+04
-6.080670703125000000e+04
-6.079744531250000000e+04
-6.080081250000000000e+04
-6.079926562500000000e+04
-6.078881250000000000e+04
-6.079167968750000000e+04
-6.078409765625000000e+04
-6.089408593750000000e+04
-6.084305468750000000e+04
-6.082256640625000000e+04
-6.081234375000000000e+04
-6.080496484375000000e+04
-6.080735937500000000e+04
-6.080489843750000000e+04
-6.080172656250000000e+04
-6.080544921875000000e+04
-6.080177734375000000e+04
-6.080006640625000000e+04
-6.079937890625000000e+04
-6.079869140625000000e+04
-6.079691406250000000e+04
-6.080062890625000000e+04
-6.079828125000000000e+04
-6.080592187500000000e+04
-6.080317187500000000e+04
-6.089226562500000000e+04
-6.086057812500000000e+04
-6.085309765625000000e+04
-6.083311718750000000e+04
-6.082235937500000000e+04
-6.082560156250000000e+04
-6.082391015625000000e+04
-6.082469140625000000e+04
-6.083067578125000000e+04
-6.082757421875000000e+04
-6.082979687500000000e+04
-6.083068359375000000e+04
-6.082873046875000000e+04
-6.082850781250000000e+04
-6.082885156250000000e+04
-6.082095312500000000e+04
-6.082231250000000000e+04
-6.082237890625000000e+04
-6.082225390625000000e+04
-6.086155468750000000e+04
-6.084731250000000000e+04
-6.083112890625000000e+04
-6.082915625000000000e+04
-6.082789843750000000e+04
-6.083291796875000000e+04
-6.083097656250000000e+04
-6.082850000000000000e+04
-6.082870703125000000e+04
-6.082978515625000000e+04
-6.083265234375000000e+04
-6.082812500000000000e+04
-6.082898828125000000e+04
-6.082758203125000000e+04
-6.082998046875000000e+04
-6.083470312500000000e+04
-6.082916015625000000e+04
-6.082631250000000000e+04
-6.082570312500000000e+04
-6.082264453125000000e+04
-6.082377343750000000e+04
-6.082593359375000000e+04
-6.089226562500000000e+04
-6.085685937500000000e+04
-6.084126562500000000e+04
-6.083297265625000000e+04
-6.081642578125000000e+04
-6.081438671875000000e+04
-6.081470312500000000e+04
-6.081748828125000000e+04
-6.081648437500000000e+04
-6.081957031250000000e+04
-6.082034765625000000e+04
-6.082062500000000000e+04
-6.082063281250000000e+04
-6.081639453125000000e+04
-6.081749218750000000e+04
-6.081478125000000000e+04
-6.081482421875000000e+04
-6.081451562500000000e+04
-6.081875781250000000e+04
-6.081487109375000000e+04
-6.081417578125000000e+04
-6.081533593750000000e+04
-6.081131640625000000e+04
-6.081469921875000000e+04
-6.085047656250000000e+04
-6.081864453125000000e+04
-6.081657421875000000e+04
-6.081513281250000000e+04
-6.081421484375000000e+04
-6.081803125000000000e+04
-6.081505468750000000e+04
-6.082250390625000000e+04
-6.081778515625000000e+04
-6.082027734375000000e+04
-6.082248828125000000e+04
-6.081778906250000000e+04
-6.081378125000000000e+04
-6.081860937500000000e+04
-6.081766406250000000e+04
-6.082325390625000000e+04
-6.082021484375000000e+04
-6.081853515625000000e+04
-6.081792578125000000e+04
-6.085536718750000000e+04
-6.084239062500000000e+04
-6.082418750000000000e+04
-6.082144531250000000e+04
-6.080373046875000000e+04
-6.080338671875000000e+04
-6.080494140625000000e+04
-6.080630078125000000e+04
-6.079859765625000000e+04
-6.080560937500000000e+04
-6.080443750000000000e+04
-6.079793359375000000e+04
-6.079846875000000000e+04
-6.079894921875000000e+04
-6.079841015625000000e+04
-6.080164843750000000e+04
-6.080144531250000000e+04
-6.080179687500000000e+04
-6.080323437500000000e+04
-6.080472656250000000e+04
-6.080712500000000000e+04
-6.089226562500000000e+04
-6.083405859375000000e+04
-6.080728906250000000e+04
-6.080644921875000000e+04
-6.080832031250000000e+04
-6.081073437500000000e+04
-6.080966796875000000e+04
-6.081243359375000000e+04
-6.080311328125000000e+04
-6.079937890625000000e+04
-6.081058203125000000e+04
-6.080939062500000000e+04
-6.080886328125000000e+04
-6.080259375000000000e+04
-6.080585156250000000e+04
-6.080618359375000000e+04
-6.081516015625000000e+04
-6.080251562500000000e+04
-6.080292578125000000e+04
-6.080257812500000000e+04
-6.080375781250000000e+04
-6.080563281250000000e+04
-6.080294531250000000e+04
-6.079570703125000000e+04
-6.089169140625000000e+04
-6.085821875000000000e+04
-6.085218750000000000e+04
-6.084157812500000000e+04
-6.083901171875000000e+04
-6.082928125000000000e+04
-6.082523828125000000e+04
-6.082901953125000000e+04
-6.082875781250000000e+04
-6.082691406250000000e+04
-6.082310156250000000e+04
-6.082659765625000000e+04
-6.082802734375000000e+04
-6.082740625000000000e+04
-6.082461328125000000e+04
-6.082663671875000000e+04
-6.082712500000000000e+04
-6.082342187500000000e+04
-6.082510937500000000e+04
-6.082208593750000000e+04
-6.082061328125000000e+04
-6.082086328125000000e+04
-6.082596484375000000e+04
-6.082056640625000000e+04
-6.082291406250000000e+04
-6.089169140625000000e+04
-6.085963281250000000e+04
-6.084454296875000000e+04
-6.083483593750000000e+04
-6.083017187500000000e+04
-6.083001562500000000e+04
-6.083201171875000000e+04
-6.083081640625000000e+04
-6.083142578125000000e+04
-6.082675390625000000e+04
-6.082923437500000000e+04
-6.082769531250000000e+04
-6.082379296875000000e+04
-6.082546875000000000e+04
-6.082089843750000000e+04
-6.082511328125000000e+04
-6.082922656250000000e+04
-6.082435937500000000e+04
-6.082385546875000000e+04
-6.082614062500000000e+04
-6.082662500000000000e+04
-6.083044140625000000e+04
-6.082522265625000000e+04
-6.082989062500000000e+04
-6.083062890625000000e+04
-6.083087500000000000e+04
-6.083804296875000000e+04
-6.081869140625000000e+04
-6.081816796875000000e+04
-6.082133203125000000e+04
-6.081370312500000000e+04
-6.081410546875000000e+04
-6.081720312500000000e+04
-6.081514843750000000e+04
-6.081645312500000000e+04
-6.081634375000000000e+04
-6.081529687500000000e+04
-6.081780468750000000e+04
-6.081257031250000000e+04
-6.081683203125000000e+04
-6.081548437500000000e+04
-6.081715625000000000e+04
-6.081470703125000000e+04
-6.081364843750000000e+04
-6.081730468750000000e+04
-6.081219921875000000e+04
-6.081007421875000000e+04
-6.081572265625000000e+04
-6.080858593750000000e+04
-6.084114062500000000e+04
-6.083671484375000000e+04
-6.081775390625000000e+04
-6.081419531250000000e+04
-6.081761718750000000e+04
-6.081825000000000000e+04
-6.081586718750000000e+04
-6.081833984375000000e+04
-6.081725000000000000e+04
-6.081591015625000000e+04
-6.081925390625000000e+04
-6.081512109375000000e+04
-6.081745703125000000e+04
-6.081874609375000000e+04
-6.081928906250000000e+04
-6.082014843750000000e+04
-6.081342968750000000e+04
-6.081123046875000000e+04
-6.085135546875000000e+04
-6.083260546875000000e+04
-6.082101171875000000e+04
-6.080376562500000000e+04
-6.080118359375000000e+04
-6.079803125000000000e+04
-6.079782812500000000e+04
-6.080105078125000000e+04
-6.080364453125000000e+04
-6.080298046875000000e+04
-6.079987109375000000e+04
-6.079887109375000000e+04
-6.079799218750000000e+04
-6.079649218750000000e+04
-6.079079296875000000e+04
-6.078751171875000000e+04
-6.079541406250000000e+04
-6.089169140625000000e+04
-6.084328906250000000e+04
-6.082551562500000000e+04
-6.081715234375000000e+04
-6.081139453125000000e+04
-6.080337109375000000e+04
-6.079841406250000000e+04
-6.080517187500000000e+04
-6.080855468750000000e+04
-6.080406640625000000e+04
-6.080004687500000000e+04
-6.079797656250000000e+04
-6.079897265625000000e+04
-6.079421484375000000e+04
-6.080128515625000000e+04
-6.079402343750000000e+04
-6.079863671875000000e+04
-6.079657421875000000e+04
-6.079585156250000000e+04
-6.080764453125000000e+04
-6.080457031250000000e+04
-6.079835546875000000e+04
-6.079905468750000000e+04
-6.079667968750000000e+04
-6.079979687500000000e+04
-6.079775390625000000e+04
-6.080509375000000000e+04
-6.079921875000000000e+04
-6.080202343750000000e+04
-6.089291796875000000e+04
-6.085089062500000000e+04
-6.084697656250000000e+04
-6.083873046875000000e+04
-6.082635546875000000e+04
-6.082382031250000000e+04
-6.082912500000000000e+04
-6.083066406250000000e+04
-6.082923437500000000e+04
-6.082726953125000000e+04
-6.082585546875000000e+04
-6.083020312500000000e+04
-6.082762500000000000e+04
-6.082192968750000000e+04
-6.082801953125000000e+04
-6.082672265625000000e+04
-6.082420703125000000e+04
-6.082360156250000000e+04
-6.083069531250000000e+04
-6.082823437500000000e+04
-6.082774609375000000e+04
-6.089291796875000000e+04
-6.085848046875000000e+04
-6.085356640625000000e+04
-6.084341796875000000e+04
-6.083705078125000000e+04
-6.083111328125000000e+04
-6.082818750000000000e+04
-6.082627734375000000e+04
-6.082849609375000000e+04
-6.083203125000000000e+04
-6.082879687500000000e+04
-6.082689453125000000e+04
-6.083395703125000000e+04
-6.082923828125000000e+04
-6.083078906250000000e+04
-6.082556640625000000e+04
-6.082840234375000000e+04
-6.082584765625000000e+04
-6.082787109375000000e+04
-6.082986328125000000e+04
-6.082787109375000000e+04
-6.082962500000000000e+04
-6.082662500000000000e+04
-6.083331640625000000e+04
-6.083085546875000000e+04
-6.082657421875000000e+04
-6.082912890625000000e+04
-6.082809765625000000e+04
-6.082729296875000000e+04
-6.082807812500000000e+04
-6.082213281250000000e+04
-6.085444531250000000e+04
-6.083473437500000000e+04
-6.081145703125000000e+04
-6.081523437500000000e+04
-6.081887500000000000e+04
-6.082239843750000000e+04
-6.081546093750000000e+04
-6.081747265625000000e+04
-6.081539453125000000e+04
-6.081845703125000000e+04
-6.081905859375000000e+04
-6.082230468750000000e+04
-6.081179687500000000e+04
-6.081488281250000000e+04
-6.081997265625000000e+04
-6.081407421875000000e+04
-6.081487890625000000e+04
-6.081755468750000000e+04
-6.081771875000000000e+04
-6.080575000000000000e+04
-6.080857421875000000e+04
-6.080754296875000000e+04
-6.084776171875000000e+04
-6.083383593750000000e+04
-6.083250390625000000e+04
-6.081612500000000000e+04
-6.081692968750000000e+04
-6.081837500000000000e+04
-6.081784375000000000e+04
-6.081466796875000000e+04
-6.081592968750000000e+04
-6.081778125000000000e+04
-6.081911718750000000e+04
-6.081598046875000000e+04
-6.081683593750000000e+04
-6.081649218750000000e+04
-6.081689843750000000e+04
-6.081573046875000000e+04
-6.081345703125000000e+04
-6.081529687500000000e+04
-6.081519140625000000e+04
-6.081370703125000000e+04
-6.081742578125000000e+04
-6.081970312500000000e+04
-6.084336718750000000e+04
-6.083102343750000000e+04
-6.081180468750000000e+04
-6.080901171875000000e+04
-6.080867187500000000e+04
-6.080329296875000000e+04
-6.080783593750000000e+04
-6.080133593750000000e+04
-6.080262109375000000e+04
-6.079396875000000000e+04
-6.079807812500000000e+04
-6.079554296875000000e+04
-6.079535546875000000e+04
-6.080561328125000000e+04
-6.080342187500000000e+04
-6.080806250000000000e+04
-6.080389062500000000e+04
-6.080254687500000000e+04
-6.080416015625000000e+04
-6.089291796875000000e+04
-6.085365234375000000e+04
-6.082791796875000000e+04
-6.081789453125000000e+04
-6.080814062500000000e+04
-6.080540625000000000e+04
-6.080536718750000000e+04
-6.081312109375000000e+04
-6.080745312500000000e+04
-6.081123828125000000e+04
-6.080646875000000000e+04
-6.080710937500000000e+04
-6.081062109375000000e+04
-6.080980078125000000e+04
-6.080894531250000000e+04
-6.081227343750000000e+04
-6.081407812500000000e+04
-6.081089453125000000e+04
-6.080903906250000000e+04
-6.080682031250000000e+04
-6.079980468750000000e+04
-6.079892187500000000e+04
-6.080083984375000000e+04
-6.080092187500000000e+04
-6.080060546875000000e+04
-6.079594921875000000e+04
-6.083236328125000000e+04
-6.082750781250000000e+04
-6.082941015625000000e+04
-6.082591406250000000e+04
-6.082248828125000000e+04
-6.082227343750000000e+04
-6.082716015625000000e+04
-6.082039062500000000e+04
-6.082303515625000000e+04
-6.082678515625000000e+04
-6.082740234375000000e+04
-6.082405078125000000e+04
-6.082432031250000000e+04
-6.082448828125000000e+04
-6.082866796875000000e+04
-6.082949609375000000e+04
-6.082537500000000000e+04
-6.082205078125000000e+04
-6.082625390625000000e+04
-6.082499609375000000e+04
-6.082112890625000000e+04
-6.082413281250000000e+04
-6.082459375000000000e+04
-6.085038671875000000e+04
-6.084013671875000000e+04
-6.082360546875000000e+04
-6.082791406250000000e+04
-6.082435156250000000e+04
-6.082846484375000000e+04
-6.082771093750000000e+04
-6.082662500000000000e+04
-6.082463281250000000e+04
-6.082382812500000000e+04
-6.082725781250000000e+04
-6.082649609375000000e+04
-6.082852734375000000e+04
-6.082198437500000000e+04
-6.081971093750000000e+04
-6.082923046875000000e+04
-6.082997265625000000e+04
-6.082740625000000000e+04
-6.082910156250000000e+04
-6.082637109375000000e+04
-6.083001171875000000e+04
-6.083230078125000000e+04
-6.082636328125000000e+04
-6.082775781250000000e+04
-6.082622265625000000e+04
-6.082466015625000000e+04
-6.082501562500000000e+04
-6.082905468750000000e+04
-6.082769921875000000e+04
-6.082545703125000000e+04
-6.082403125000000000e+04
-6.089139453125000000e+04
-6.085624609375000000e+04
-6.081418750000000000e+04
-6.082197265625000000e+04
-6.081278515625000000e+04
-6.081716796875000000e+04
-6.081537500000000000e+04
-6.081281640625000000e+04
-6.081967187500000000e+04
-6.081363671875000000e+04
-6.081069531250000000e+04
-6.081232421875000000e+04
-6.081886718750000000e+04
-6.081488281250000000e+04