-1.711588287353515625e+01 1.186142444610595703e+01 9.769285202026367188e+00 1.186142444610595703e+01 -2.908995819091796875e+01 4.854382514953613281e+00 9.769285202026367188e+00 4.854382514953613281e+00 -2.196255302429199219e+01
-2.924022865295410156e+01 8.303096771240234375e+00 2.131273841857910156e+01 8.303096771240234375e+00 -3.751919937133789062e+01 -6.936190605163574219e+00 2.131273841857910156e+01 -6.936190605163574219e+00 -2.799877166748046875e+01
-1.409742641448974609e+01 -1.460420036315917969e+01 1.121241599321365356e-01 -1.460420036315917969e+01 -5.698686599731445312e+01 2.181029319763183594e+01 1.121241599321365356e-01 2.181029319763183594e+01 -4.460274124145507812e+01
-6.953405857086181641e+00 -9.023828506469726562e+00 1.486660671234130859e+01 -9.023828506469726562e+00 -2.013412094116210938e+01 -1.871405601501464844e+01 1.486660671234130859e+01 -1.871405601501464844e+01 4.814003944396972656e+00
-3.650158309936523438e+01 4.035444259643554688e+00 5.753265380859375000e+00 4.035444259643554688e+00 -4.322374343872070312e+01 -8.973803520202636719e-01 5.753265380859375000e+00 -8.973803520202636719e-01 -5.155505371093750000e+01
2.814183950424194336e+00 -1.963014984130859375e+01 1.936049079895019531e+01 -1.963014984130859375e+01 -2.284852218627929688e+01 -6.896718025207519531e+00 1.936049079895019531e+01 -6.896718025207519531e+00 -1.717002105712890625e+01
-4.695462036132812500e+01 4.958494663238525391e+00 -1.688013267517089844e+01 4.958494663238525391e+00 3.835930585861206055e+00 1.016942310333251953e+01 -1.688013267517089844e+01 1.016942310333251953e+01 8.934650421142578125e+00
-1.037214584350585938e+02 7.880185604095458984e+00 -6.279134273529052734e+00 7.880185604095458984e+00 -4.263222885131835938e+01 1.700707435607910156e+01 -6.279134273529052734e+00 1.700707435607910156e+01 -4.862706756591796875e+01
-5.732343292236328125e+01 8.173432350158691406e+00 -1.182960987091064453e+01 8.173432350158691406e+00 -4.953207397460937500e+01 1.487368965148925781e+01 -1.182960987091064453e+01 1.487368965148925781e+01 -2.872514533996582031e+01
4.502331256866455078e+00 -9.712340831756591797e-01 -1.341028118133544922e+01 -9.712340831756591797e-01 -1.810596275329589844e+01 9.365680694580078125e+00 -1.341028118133544922e+01 9.365680694580078125e+00 -1.421417522430419922e+01
-3.047651481628417969e+01 -4.955330848693847656e+00 -8.971330642700195312e+00 -4.955330848693847656e+00 -3.744916915893554688e+01 -4.362076282501220703e+00 -8.971330642700195312e+00 -4.362076282501220703e+00 -1.984612655639648438e+01
-5.278737258911132812e+01 1.327267885208129883e+00 -1.512955188751220703e+01 1.327267885208129883e+00 -1.169845581054687500e+01 2.245314121246337891e+00 -1.512955188751220703e+01 2.245314121246337891e+00 -2.485952758789062500e+01
-6.016258239746093750e+01 1.233789086341857910e+00 5.427866935729980469e+00 1.233789086341857910e+00 -4.271796798706054688e+01 9.180055618286132812e+00 5.427866935729980469e+00 9.180055618286132812e+00 -5.977965545654296875e+01
-2.729928970336914062e+01 -2.125122070312500000e+00 6.528828740119934082e-01 -2.125122070312500000e+00 -5.538530349731445312e+00 2.082443618774414062e+01 6.528828740119934082e-01 2.082443618774414062e+01 -7.571470737457275391e+00
-9.438080787658691406e+00 8.306644439697265625e+00 -2.324519395828247070e+00 8.306644439697265625e+00 -2.281726074218750000e+01 -1.458702182769775391e+01 -2.324519395828247070e+00 -1.458702182769775391e+01 -3.810474777221679688e+01
-3.158237648010253906e+01 6.265503883361816406e+00 1.805320930480957031e+01 6.265503883361816406e+00 -3.651799392700195312e+01 -1.254278850555419922e+01 1.805320930480957031e+01 -1.254278850555419922e+01 -3.161647605895996094e+01
-2.603423881530761719e+01 -6.434749603271484375e+00 -5.285929441452026367e-01 -6.434749603271484375e+00 -4.886896133422851562e+01 -4.346149444580078125e+00 -5.285929441452026367e-01 -4.346149444580078125e+00 -1.846246337890625000e+01
-2.579873466491699219e+01 1.361316680908203125e+00 -8.022009849548339844e+00 1.361316680908203125e+00 -2.079203987121582031e+01 8.767645835876464844e+00 -8.022009849548339844e+00 8.767645835876464844e+00 -2.202239036560058594e+01
-4.528279495239257812e+01 7.714395523071289062e+00 -4.389534473419189453e+00 7.714395523071289062e+00 -5.388990783691406250e+01 -7.355789661407470703e+00 -4.389534473419189453e+00 -7.355789661407470703e+00 -3.448908996582031250e+01
-5.123584747314453125e+01 -6.109400749206542969e+00 -9.465032577514648438e+00 -6.109400749206542969e+00 -5.107585525512695312e+01 -1.266362094879150391e+01 -9.465032577514648438e+00 -1.266362094879150391e+01 -3.197363281250000000e+01
-4.472753143310546875e+01 -1.514101886749267578e+01 1.208851528167724609e+01 -1.514101886749267578e+01 -3.751242446899414062e+01 -2.749710321426391602e+00 1.208851528167724609e+01 -2.749710321426391602e+00 -3.284669494628906250e+01
-5.439164733886718750e+01 4.296703338623046875e+00 -1.182648468017578125e+01 4.296703338623046875e+00 -5.017684173583984375e+01 -6.717841625213623047e+00 -1.182648468017578125e+01 -6.717841625213623047e+00 -4.103472518920898438e+01
-5.279642868041992188e+01 -1.902857017517089844e+01 -7.776609420776367188e+00 -1.902857017517089844e+01 -2.554129791259765625e+01 -8.001881599426269531e+00 -7.776609420776367188e+00 -8.001881599426269531e+00 -5.149506378173828125e+01
-1.424605560302734375e+01 1.233098030090332031e+01 5.572832107543945312e+00 1.233098030090332031e+01 -3.873833847045898438e+01 -1.709158182144165039e+00 5.572832107543945312e+00 -1.709158182144165039e+00 -3.751170730590820312e+01
-2.394874000549316406e+01 2.721867322921752930e+00 -5.345622062683105469e+00 2.721867322921752930e+00 1.634396934509277344e+01 -1.711891174316406250e+01 -5.345622062683105469e+00 -1.711891174316406250e+01 -1.207147407531738281e+01
-6.539202880859375000e+01 -1.816641616821289062e+01 1.089326381683349609e+01 -1.816641616821289062e+01 -1.662249755859375000e+01 -1.122011375427246094e+01 1.089326381683349609e+01 -1.122011375427246094e+01 -4.513548660278320312e+01
-2.845147895812988281e+01 -1.357055425643920898e+00 2.489816695451736450e-01 -1.357055425643920898e+00 -4.741109085083007812e+01 3.309990882873535156e+00 2.489816695451736450e-01 3.309990882873535156e+00 -4.636285400390625000e+01
2.701808452606201172e+00 1.254213905334472656e+01 2.285630989074707031e+01 1.254213905334472656e+01 -3.597348785400390625e+01 3.492995023727416992e+00 2.285630989074707031e+01 3.492995023727416992e+00 -4.610867309570312500e+01
-2.287827730178833008e+00 -1.314513111114501953e+01 7.112752437591552734e+00 -1.314513111114501953e+01 -5.382725906372070312e+01 -7.004758358001708984e+00 7.112752437591552734e+00 -7.004758358001708984e+00 -5.476704025268554688e+01
-6.495609283447265625e+01 4.048817157745361328e+00 -1.913377189636230469e+01 4.048817157745361328e+00 -1.819916343688964844e+01 1.099429988861083984e+01 -1.913377189636230469e+01 1.099429988861083984e+01 -3.148990821838378906e+01
-2.629527282714843750e+01 1.697858619689941406e+01 -1.028457641601562500e+01 1.697858619689941406e+01 -3.606109237670898438e+01 9.330710411071777344e+00 -1.028457641601562500e+01 9.330710411071777344e+00 -1.511243057250976562e+01
-2.578430891036987305e+00 -4.870661735534667969e+00 1.486680698394775391e+01 -4.870661735534667969e+00 -5.092953872680664062e+01 5.516620159149169922e+00 1.486680698394775391e+01 5.516620159149169922e+00 -3.085379409790039062e+01
-9.545807838439941406e+00 1.705811119079589844e+01 -1.821080970764160156e+01 1.705811119079589844e+01 -5.398803329467773438e+01 1.964282035827636719e+01 -1.821080970764160156e+01 1.964282035827636719e+01 -4.828783416748046875e+01
-1.338603115081787109e+01 -1.556262493133544922e+01 7.956311702728271484e+00 -1.556262493133544922e+01 -9.313798904418945312e+00 6.175345420837402344e+00 7.956311702728271484e+00 6.175345420837402344e+00 -3.131858062744140625e+01
-8.099790191650390625e+01 -9.545605659484863281e+00 4.475690364837646484e+00 -9.545605659484863281e+00 -3.203906250000000000e+01 1.336427116394042969e+01 4.475690364837646484e+00 1.336427116394042969e+01 -4.904913425445556641e+00
-3.742094039916992188e+01 1.359689998626708984e+01 1.009997367858886719e+01 1.359689998626708984e+01 -3.627323913574218750e+01 -7.621609210968017578e+00 1.009997367858886719e+01 -7.621609210968017578e+00 -5.283684158325195312e+01
-3.443853378295898438e+01 -6.354607582092285156e+00 1.665031462907791138e-01 -6.354607582092285156e+00 -3.377267456054687500e+01 -1.588204193115234375e+01 1.665031462907791138e-01 -1.588204193115234375e+01 -3.302809906005859375e+01
-5.380548858642578125e+01 -3.202830553054809570e+00 -1.288727188110351562e+01 -3.202830553054809570e+00 -2.061017417907714844e+01 1.436807250976562500e+01 -1.288727188110351562e+01 1.436807250976562500e+01 -3.985681915283203125e+01
-2.488936042785644531e+01 1.195929169654846191e+00 -2.399551200866699219e+01 1.195929169654846191e+00 -3.831246185302734375e+01 3.673758029937744141e+00 -2.399551200866699219e+01 3.673758029937744141e+00 -5.062002563476562500e+01
-8.034753203392028809e-01 -9.544325828552246094e+00 -1.387345314025878906e+00 -9.544325828552246094e+00 -9.309884071350097656e+00 -5.054415225982666016e+00 -1.387345314025878906e+00 -5.054415225982666016e+00 -5.175029754638671875e+00
-4.043367004394531250e+01 4.272743225097656250e+00 3.026994132995605469e+01 4.272743225097656250e+00 -1.437070083618164062e+01 -3.039483129978179932e-01 3.026994132995605469e+01 -3.039483129978179932e-01 -5.035107421875000000e+01
-1.283216571807861328e+01 3.281270980834960938e+00 -1.454062366485595703e+01 3.281270980834960938e+00 -2.167235136032104492e+00 1.002000522613525391e+01 -1.454062366485595703e+01 1.002000522613525391e+01 4.316844463348388672e+00
-3.416514968872070312e+01 3.947572410106658936e-01 -2.160227012634277344e+01 3.947572410106658936e-01 -5.410755538940429688e+01 1.161756134033203125e+01 -2.160227012634277344e+01 1.161756134033203125e+01 -5.038407897949218750e+01
-4.629951477050781250e+01 1.152065181732177734e+01 1.772267532348632812e+01 1.152065181732177734e+01 -1.665550994873046875e+01 -5.135608673095703125e+00 1.772267532348632812e+01 -5.135608673095703125e+00 -2.845231437683105469e+01
-1.813592529296875000e+01 2.070939064025878906e+00 -4.170196533203125000e+00 2.070939064025878906e+00 -4.821309280395507812e+01 8.525392532348632812e+00 -4.170196533203125000e+00 8.525392532348632812e+00 -9.452311515808105469e+00
-7.245300769805908203e+00 8.350314140319824219e+00 2.082654380798339844e+01 8.350314140319824219e+00 -3.232336807250976562e+01 6.374963283538818359e+00 2.082654380798339844e+01 6.374963283538818359e+00 -5.202154541015625000e+01
-3.400237655639648438e+01 4.012057781219482422e+00 3.563211679458618164e+00 4.012057781219482422e+00 -4.948611068725585938e+01 -2.619438648223876953e+00 3.563211679458618164e+00 -2.619438648223876953e+00 -1.790020370483398438e+01
-2.953415298461914062e+01 -1.627281951904296875e+01 -2.463866233825683594e+01 -1.627281951904296875e+01 -3.360228729248046875e+01 1.795429992675781250e+01 -2.463866233825683594e+01 1.795429992675781250e+01 -3.043564224243164062e+01
-5.907085418701171875e+01 4.163816928863525391e+00 -2.458653926849365234e+00 4.163816928863525391e+00 -5.017052078247070312e+01 1.601867103576660156e+01 -2.458653926849365234e+00 1.601867103576660156e+01 -4.165435028076171875e+01
-1.998780250549316406e+01 1.624985504150390625e+01 2.647657012939453125e+01 1.624985504150390625e+01 -9.840647888183593750e+01 9.642896652221679688e+00 2.647657012939453125e+01 9.642896652221679688e+00 -6.853008270263671875e+01
-1.572484683990478516e+01 9.884305953979492188e+00 2.044700813293457031e+01 9.884305953979492188e+00 -1.621279716491699219e+01 4.118652343750000000e+00 2.044700813293457031e+01 4.118652343750000000e+00 -1.174962711334228516e+01
-3.785847473144531250e+01 -5.638092041015625000e+00 -1.420102238655090332e+00 -5.638092041015625000e+00 -4.218391799926757812e+01 -1.451036739349365234e+01 -1.420102238655090332e+00 -1.451036739349365234e+01 -4.611135101318359375e+01
-6.612305450439453125e+01 -3.684718370437622070e+00 1.265874004364013672e+01 -3.684718370437622070e+00 -4.574339675903320312e+01 2.081394910812377930e+00 1.265874004364013672e+01 2.081394910812377930e+00 -5.691124343872070312e+01
-5.448748779296875000e+01 -5.946435451507568359e+00 -9.021129608154296875e+00 -5.946435451507568359e+00 -7.837772369384765625e+01 -5.036876201629638672e+00 -9.021129608154296875e+00 -5.036876201629638672e+00 -5.184529495239257812e+01
-2.074106407165527344e+01 3.448483943939208984e+00 -1.856854629516601562e+01 3.448483943939208984e+00 -3.833203506469726562e+01 3.521022796630859375e+00 -1.856854629516601562e+01 3.521022796630859375e+00 -2.983873176574707031e+01
-1.414723491668701172e+01 -2.058520507812500000e+01 -4.854146957397460938e+00 -2.058520507812500000e+01 -3.570965957641601562e+01 7.538795948028564453e+00 -4.854146957397460938e+00 7.538795948028564453e+00 -2.920402908325195312e+01
-4.347571563720703125e+01 8.384458422660827637e-01 8.521432876586914062e+00 8.384458422660827637e-01 -5.571591567993164062e+01 -1.652122020721435547e+00 8.521432876586914062e+00 -1.652122020721435547e+00 -4.882913589477539062e+01
-3.594341993331909180e+00 2.656421899795532227e+00 -1.371218490600585938e+01 2.656421899795532227e+00 -1.870407611131668091e-01 1.476449203491210938e+01 -1.371218490600585938e+01 1.476449203491210938e+01 -2.259209632873535156e+01
2.189787626266479492e+00 -1.503902077674865723e+00 -6.895233154296875000e+00 -1.503902077674865723e+00 -4.862512969970703125e+01 -8.310314178466796875e+00 -6.895233154296875000e+00 -8.310314178466796875e+00 -3.137614822387695312e+01
-4.949296951293945312e+01 -4.402286052703857422e+00 3.742129325866699219e+00 -4.402286052703857422e+00 -7.230458831787109375e+01 1.303869247436523438e+01 3.742129325866699219e+00 1.303869247436523438e+01 -4.778266906738281250e+01
-4.615447616577148438e+01 4.272949218750000000e+00 3.861833095550537109e+00 4.272949218750000000e+00 -1.774129486083984375e+01 8.131428718566894531e+00 3.861833095550537109e+00 8.131428718566894531e+00 -8.143119812011718750e+01
-4.658272552490234375e+01 1.551400375366210938e+01 -4.498936176300048828e+00 1.551400375366210938e+01 -4.797471618652343750e+01 5.460983276367187500e+00 -4.498936176300048828e+00 5.460983276367187500e+00 -2.873751640319824219e+01
-3.375999450683593750e+01 7.561743736267089844e+00 -1.346983718872070312e+01 7.561743736267089844e+00 -4.114003753662109375e+01 1.793828487396240234e+00 -1.346983718872070312e+01 1.793828487396240234e+00 -3.213972091674804688e+01
-4.732221221923828125e+01 4.018198966979980469e+00 3.706377744674682617e+00 4.018198966979980469e+00 -6.894203948974609375e+01 6.783291816711425781e+00 3.706377744674682617e+00 6.783291816711425781e+00 -4.683707046508789062e+01
-4.892739105224609375e+01 8.748038291931152344e+00 -4.093927383422851562e+00 8.748038291931152344e+00 -3.064300155639648438e+01 4.513797760009765625e+00 -4.093927383422851562e+00 4.513797760009765625e+00 -3.407300186157226562e+01
-3.704619979858398438e+01 1.208147907257080078e+01 -5.660121917724609375e+00 1.208147907257080078e+01 -5.913463973999023438e+01 -5.008393764495849609e+00 -5.660121917724609375e+00 -5.008393764495849609e+00 -2.921813774108886719e+01
-5.069969177246093750e+01 2.438878059387207031e+01 -3.602965593338012695e+00 2.438878059387207031e+01 -5.255974578857421875e+01 -2.070904350280761719e+01 -3.602965593338012695e+00 -2.070904350280761719e+01 -3.530764389038085938e+01
-3.092429351806640625e+01 1.699041485786437988e+00 4.446048736572265625e+00 1.699041485786437988e+00 -4.383129501342773438e+01 4.895765781402587891e+00 4.446048736572265625e+00 4.895765781402587891e+00 -3.162859725952148438e+01
-5.647994995117187500e+01 -7.864219665527343750e+00 5.138336658477783203e+00 -7.864219665527343750e+00 -4.000395965576171875e+01 -9.323482513427734375e+00 5.138336658477783203e+00 -9.323482513427734375e+00 -2.659057807922363281e+01
-1.998779106140136719e+01 1.624985122680664062e+01 2.647658157348632812e+01 1.624985122680664062e+01 -9.840649414062500000e+01 9.642895698547363281e+00 2.647658157348632812e+01 9.642895698547363281e+00 -6.853008270263671875e+01
-1.557379150390625000e+01 2.085463714599609375e+01 2.792976617813110352e+00 2.085463714599609375e+01 -1.707335281372070312e+01 -9.745511054992675781e+00 2.792976617813110352e+00 -9.745511054992675781e+00 -4.739349746704101562e+01
-4.548857116699218750e+01 -1.054914116859436035e+00 7.915562629699707031e+00 -1.054914116859436035e+00 -3.011799240112304688e+01 -2.417353820800781250e+01 7.915562629699707031e+00 -2.417353820800781250e+01 -5.072099685668945312e+01
-8.124897956848144531e+00 1.396739840507507324e+00 9.983965873718261719e+00 1.396739840507507324e+00 -5.289449691772460938e+01 1.462681770324707031e+01 9.983965873718261719e+00 1.462681770324707031e+01 -4.369345188140869141e+00
-4.136655044555664062e+01 1.508673477172851562e+01 -1.575868892669677734e+01 1.508673477172851562e+01 -3.509904098510742188e+01 2.562648296356201172e+00 -1.575868892669677734e+01 2.562648296356201172e+00 -3.338366317749023438e+01
-6.416432189941406250e+01 1.424861717224121094e+01 1.122893905639648438e+01 1.424861717224121094e+01 -3.350327682495117188e+01 -1.410770606994628906e+01 1.122893905639648438e+01 -1.410770606994628906e+01 -1.123189067840576172e+01
-1.266511249542236328e+01 -6.800530910491943359e+00 -3.999528646469116211e+00 -6.800530910491943359e+00 -5.582306289672851562e+01 -2.234754180908203125e+01 -3.999528646469116211e+00 -2.234754180908203125e+01 -2.130470466613769531e+01
3.209937572479248047e+00 -2.101224517822265625e+01 -8.389026641845703125e+00 -2.101224517822265625e+01 -4.367234039306640625e+01 -2.205654144287109375e+01 -8.389026641845703125e+00 -2.205654144287109375e+01 -3.779202699661254883e+00
-2.500374794006347656e+01 -4.634928703308105469e+00 -8.751526832580566406e+00 -4.634928703308105469e+00 -4.217558670043945312e+01 -7.711197137832641602e-01 -8.751526832580566406e+00 -7.711197137832641602e-01 -1.487372303009033203e+01
-1.976556015014648438e+01 5.796613216400146484e+00 -2.812769889831542969e+00 5.796613216400146484e+00 -3.966271591186523438e+01 2.299253654479980469e+01 -2.812769889831542969e+00 2.299253654479980469e+01 3.367602348327636719e+00
-3.892786026000976562e+01 -6.131393909454345703e+00 1.359671401977539062e+01 -6.131393909454345703e+00 -4.034460449218750000e+01 -7.329621315002441406e+00 1.359671401977539062e+01 -7.329621315002441406e+00 -4.910207748413085938e+01
-3.501542282104492188e+01 -4.706495761871337891e+00 -2.090906906127929688e+01 -4.706495761871337891e+00 -6.263508987426757812e+01 3.541395664215087891e+00 -2.090906906127929688e+01 3.541395664215087891e+00 -4.749711990356445312e+01
-3.960198163986206055e+00 -2.276261329650878906e+00 1.806100082397460938e+01 -2.276261329650878906e+00 -1.135494804382324219e+01 -1.571895217895507812e+01 1.806100082397460938e+01 -1.571895217895507812e+01 -1.966517448425292969e+01
-4.613439559936523438e+01 5.104030132293701172e+00 6.266904354095458984e+00 5.104030132293701172e+00 -1.759893608093261719e+01 2.001669645309448242e+00 6.266904354095458984e+00 2.001669645309448242e+00 -6.884047698974609375e+01
-4.028825759887695312e+01 3.508738040924072266e+00 9.159279823303222656e+00 3.508738040924072266e+00 -8.553656768798828125e+01 1.624972939491271973e+00 9.159279823303222656e+00 1.624972939491271973e+00 -5.926021575927734375e+01
-5.594934844970703125e+01 3.925671815872192383e+00 2.196599006652832031e+00 3.925671815872192383e+00 -5.283571243286132812e+01 -9.814446449279785156e+00 2.196599006652832031e+00 -9.814446449279785156e+00 -4.392430114746093750e+01
-6.722991180419921875e+01 1.926497697830200195e+00 1.626309204101562500e+01 1.926497697830200195e+00 -4.027734375000000000e+01 -1.022369289398193359e+01 1.626309204101562500e+01 -1.022369289398193359e+01 -5.775284576416015625e+01
-5.531930541992187500e+01 5.747846126556396484e+00 2.122122383117675781e+01 5.747846126556396484e+00 -1.479082298278808594e+01 -1.175593757629394531e+01 2.122122383117675781e+01 -1.175593757629394531e+01 -4.476475143432617188e+01
-5.494700241088867188e+01 -1.173814392089843750e+01 3.533316135406494141e+00 -1.173814392089843750e+01 -6.639199829101562500e+01 -2.013547515869140625e+01 3.533316135406494141e+00 -2.013547515869140625e+01 -5.115980148315429688e+01
-4.034787750244140625e+01 2.402675437927246094e+01 8.698321342468261719e+00 2.402675437927246094e+01 -3.158872795104980469e+01 -1.201298427581787109e+01 8.698321342468261719e+00 -1.201298427581787109e+01 -2.656378364562988281e+01
-5.559825897216796875e+01 8.709811210632324219e+00 -1.828570175170898438e+01 8.709811210632324219e+00 -4.186322784423828125e+01 3.793842315673828125e+00 -1.828570175170898438e+01 3.793842315673828125e+00 -6.063810729980468750e+01
-6.097636795043945312e+01 -2.519963455200195312e+01 -1.734375834465026855e+00 -2.519963455200195312e+01 -3.838672256469726562e+01 -1.900198364257812500e+01 -1.734375834465026855e+00 -1.900198364257812500e+01 -4.026790618896484375e+01
-1.998780632019042969e+01 1.624985885620117188e+01 2.647656631469726562e+01 1.624985885620117188e+01 -9.840647125244140625e+01 9.642896652221679688e+00 2.647656631469726562e+01 9.642896652221679688e+00 -6.853008270263671875e+01
-3.082472419738769531e+01 -5.725184917449951172e+00 1.160978603363037109e+01 -5.725184917449951172e+00 -3.266634368896484375e+01 8.053698539733886719e+00 1.160978603363037109e+01 8.053698539733886719e+00 -4.481194686889648438e+01
-2.078467559814453125e+01 4.878726005554199219e+00 1.977592658996582031e+01 4.878726005554199219e+00 -3.280665969848632812e+01 2.069596862792968750e+01 1.977592658996582031e+01 2.069596862792968750e+01 -4.780505371093750000e+01
-2.634970283508300781e+01 -7.179348468780517578e+00 3.974078178405761719e+00 -7.179348468780517578e+00 -5.559513092041015625e+01 -1.571871566772460938e+01 3.974078178405761719e+00 -1.571871566772460938e+01 -4.952461624145507812e+01
-6.475357055664062500e+01 -2.249929904937744141e+00 2.346093654632568359e+00 -2.249929904937744141e+00 -4.463440322875976562e+01 1.746930480003356934e-01 2.346093654632568359e+00 1.746930480003356934e-01 -3.934218597412109375e+01
-3.249175262451171875e+01 4.917292118072509766e+00 -1.446417999267578125e+01 4.917292118072509766e+00 -1.087448120117187500e+01 5.780195713043212891e+00 -1.446417999267578125e+01 5.780195713043212891e+00 -6.613429260253906250e+01
-4.310787582397460938e+01 2.672724723815917969e+01 -4.165681838989257812e+00 2.672724723815917969e+01 -3.294804382324218750e+01 -7.839664459228515625e+00 -4.165681838989257812e+00 -7.839664459228515625e+00 -1.792064122855663300e-02
-6.492038726806640625e+01 -1.880372428894042969e+01 2.339585685729980469e+01 -1.880372428894042969e+01 -5.129994201660156250e+01 7.069420337677001953e+00 2.339585685729980469e+01 7.069420337677001953e+00 -5.177807235717773438e+01
-3.316957473754882812e+01 -1.412726116180419922e+01 -1.960743141174316406e+01 -1.412726116180419922e+01 -4.478576278686523438e+01 9.804925918579101562e+00 -1.960743141174316406e+01 9.804925918579101562e+00 -6.923953247070312500e+01
-4.959859466552734375e+01 8.034915328025817871e-01 3.146616935729980469e+00 8.034915328025817871e-01 -5.236566162109375000e+01 8.251688003540039062e+00 3.146616935729980469e+00 8.251688003540039062e+00 -1.204057884216308594e+01
-1.392187881469726562e+01 9.181591987609863281e+00 8.371140480041503906e+00 9.181591987609863281e+00 -2.652588272094726562e+01 9.818216323852539062e+00 8.371140480041503906e+00 9.818216323852539062e+00 -6.626345062255859375e+01
-4.360992431640625000e+01 -3.691048383712768555e+00 -7.250852108001708984e+00 -3.691048383712768555e+00 -6.105467224121093750e+01 -8.399896621704101562e+00 -7.250852108001708984e+00 -8.399896621704101562e+00 -4.360357284545898438e+01
-3.879948806762695312e+01 -1.200041580200195312e+01 1.283953475952148438e+01 -1.200041580200195312e+01 -4.984576797485351562e+01 9.373870849609375000e+00 1.283953475952148438e+01 9.373870849609375000e+00 -2.865363121032714844e+01
-6.018729782104492188e+01 -1.756037521362304688e+01 -3.912391901016235352e+00 -1.756037521362304688e+01 -5.480157089233398438e+01 2.968493223190307617e+00 -3.912391901016235352e+00 2.968493223190307617e+00 -7.250691223144531250e+01
-6.717800903320312500e+01 -2.917582130432128906e+01 8.632441520690917969e+00 -2.917582130432128906e+01 -5.225908279418945312e+01 -1.718148827552795410e+00 8.632441520690917969e+00 -1.718148827552795410e+00 -5.475602722167968750e+01
-7.542706298828125000e+01 -3.316912174224853516e+00 -2.148434638977050781e+01 -3.316912174224853516e+00 -5.215715789794921875e+01 7.950356006622314453e+00 -2.148434638977050781e+01 7.950356006622314453e+00 -9.292663574218750000e+01
-6.955776214599609375e+00 1.316648578643798828e+01 7.459625720977783203e+00 1.316648578643798828e+01 -5.095611572265625000e+01 -5.634179115295410156e+00 7.459625720977783203e+00 -5.634179115295410156e+00 -4.047080039978027344e+00
-3.747388076782226562e+01 7.993427515029907227e-01 1.434764862060546875e+01 7.993427515029907227e-01 -3.477118301391601562e+01 1.130235290527343750e+01 1.434764862060546875e+01 1.130235290527343750e+01 -3.469932556152343750e+01
-6.125461959838867188e+01 4.805393218994140625e+00 -2.225282859802246094e+01 4.805393218994140625e+00 -4.273794174194335938e+01 -1.971505928039550781e+01 -2.225282859802246094e+01 -1.971505928039550781e+01 -2.087237739562988281e+01
-3.017046165466308594e+01 6.389767169952392578e+00 -5.858072757720947266e+00 6.389767169952392578e+00 -5.563084793090820312e+01 -1.578618907928466797e+01 -5.858072757720947266e+00 -1.578618907928466797e+01 -9.713941574096679688e+00
-5.472233200073242188e+01 9.111749649047851562e+00 -1.905670547485351562e+01 9.111749649047851562e+00 -3.358341217041015625e+01 -1.924410438537597656e+01 -1.905670547485351562e+01 -1.924410438537597656e+01 -3.163521385192871094e+01
-4.781178665161132812e+01 -7.399179935455322266e+00 -2.088027191162109375e+01 -7.399179935455322266e+00 -7.374082946777343750e+01 -1.848193168640136719e+01 -2.088027191162109375e+01 -1.848193168640136719e+01 -5.556227111816406250e+01
-6.183778762817382812e+01 2.587343215942382812e+00 -1.230401229858398438e+01 2.587343215942382812e+00 -8.721971893310546875e+01 -5.452046871185302734e+00 -1.230401229858398438e+01 -5.452046871185302734e+00 -5.571581268310546875e+01
-1.332741832733154297e+01 6.489176750183105469e+00 1.940303993225097656e+01 6.489176750183105469e+00 -9.916478157043457031e+00 1.355364704132080078e+01 1.940303993225097656e+01 1.355364704132080078e+01 -2.247837448120117188e+01
-3.091096305847167969e+01 3.893531322479248047e+00 -2.297434806823730469e+00 3.893531322479248047e+00 -2.468919754028320312e+01 -4.818243980407714844e+00 -2.297434806823730469e+00 -4.818243980407714844e+00 -3.064680480957031250e+01
-5.258884048461914062e+01 1.065516948699951172e+01 -9.725444793701171875e+00 1.065516948699951172e+01 -3.408535766601562500e+01 2.895188903808593750e+01 -9.725444793701171875e+00 2.895188903808593750e+01 -5.307920074462890625e+01
-3.382053756713867188e+01 -4.881651878356933594e+00 4.022577285766601562e+00 -4.881651878356933594e+00 -6.071184539794921875e+01 -1.040777301788330078e+01 4.022577285766601562e+00 -1.040777301788330078e+01 -5.285521316528320312e+01
-5.715745162963867188e+01 6.423712730407714844e+00 -1.021483707427978516e+01 6.423712730407714844e+00 -1.191715545654296875e+02 -2.948298752307891846e-01 -1.021483707427978516e+01 -2.948298752307891846e-01 -6.265697860717773438e+01
-5.874514389038085938e+01 -1.470160293579101562e+01 -1.243869066238403320e+00 -1.470160293579101562e+01 -4.501934814453125000e+01 -1.927157211303710938e+01 -1.243869066238403320e+00 -1.927157211303710938e+01 -6.110788345336914062e+01
-5.572531509399414062e+01 -1.503969001770019531e+01 6.156565189361572266e+00 -1.503969001770019531e+01 -3.421706771850585938e+01 1.738801002502441406e+01 6.156565189361572266e+00 1.738801002502441406e+01 -3.831427764892578125e+01
-5.065594863891601562e+01 2.850236320495605469e+01 -1.491828250885009766e+01 2.850236320495605469e+01 -7.165426635742187500e+01 -1.070932865142822266e+01 -1.491828250885009766e+01 -1.070932865142822266e+01 -3.302177429199218750e+01
-5.817628097534179688e+01 -2.204251861572265625e+01 8.528707504272460938e+00 -2.204251861572265625e+01 -5.263869857788085938e+01 1.040400600433349609e+01 8.528707504272460938e+00 1.040400600433349609e+01 -7.701084899902343750e+01
-3.910221099853515625e+01 5.743179321289062500e+00 6.861301898956298828e+00 5.743179321289062500e+00 -8.301953887939453125e+01 5.433349132537841797e+00 6.861301898956298828e+00 5.433349132537841797e+00 -5.871544265747070312e+01
-3.651733875274658203e+00 -4.060855388641357422e+00 9.557038307189941406e+00 -4.060855388641357422e+00 -4.553935241699218750e+01 -2.318784904479980469e+01 9.557038307189941406e+00 -2.318784904479980469e+01 -1.304453086853027344e+01
-8.760022163391113281e+00 -1.684600639343261719e+01 1.442960834503173828e+01 -1.684600639343261719e+01 -5.343032836914062500e+01 7.381811141967773438e+00 1.442960834503173828e+01 7.381811141967773438e+00 -2.337567329406738281e+01
-3.826849746704101562e+01 -8.597499847412109375e+00 2.302124786376953125e+01 -8.597499847412109375e+00 -6.167065429687500000e+01 2.045939207077026367e+00 2.302124786376953125e+01 2.045939207077026367e+00 -5.759209823608398438e+01
-4.572409057617187500e+01 -9.061443328857421875e+00 2.037995910644531250e+01 -9.061443328857421875e+00 -4.366704940795898438e+01 -1.034593582153320312e+00 2.037995910644531250e+01 -1.034593582153320312e+00 -5.814411163330078125e+01
-6.058572387695312500e+01 -7.416324615478515625e+00 -8.870579719543457031e+00 -7.416324615478515625e+00 -5.794263458251953125e+01 8.956622123718261719e+00 -8.870579719543457031e+00 8.956622123718261719e+00 -5.697264099121093750e+01
-1.880257797241210938e+01 1.037009334564208984e+01 -1.975451350212097168e+00 1.037009334564208984e+01 -4.554815292358398438e+01 2.627668380737304688e-01 -1.975451350212097168e+00 2.627668380737304688e-01 -5.294885253906250000e+01