-6.086038281250000000e+04
-6.085628125000000000e+04
-6.084260937500000000e+04
-6.082905468750000000e+04
-6.083259375000000000e+04
-6.083447265625000000e+04
-6.083673828125000000e+04
-6.083598437500000000e+04
-6.083385937500000000e+04
-6.083371093750000000e+04
-6.083288671875000000e+04
-6.083528515625000000e+04
-6.083307031250000000e+04
-6.083220312500000000e+04
-6.083318750000000000e+04
-6.083321484375000000e+04
-6.082966796875000000e+04
-6.083335937500000000e+04
-6.082751562500000000e+04
-6.083354296875000000e+04
-6.083337109375000000e+04
-6.083121093750000000e+04
-6.083615625000000000e+04
-6.083555078125000000e+04
-6.089221875000000000e+04
-6.085734765625000000e+04
-6.084850000000000000e+04
-6.084629296875000000e+04
-6.082852734375000000e+04
-6.083544921875000000e+04
-6.083385546875000000e+04
-6.083723046875000000e+04
-6.083214453125000000e+04
-6.083094140625000000e+04
-6.083895312500000000e+04
-6.083935546875000000e+04
-6.083621484375000000e+04
-6.083581640625000000e+04
-6.083441015625000000e+04
-6.083529687500000000e+04
-6.083232812500000000e+04
-6.083269140625000000e+04
-6.083410546875000000e+04
-6.083498828125000000e+04
-6.083590234375000000e+04
-6.083326562500000000e+04
-6.083321875000000000e+04
-6.083194531250000000e+04
-6.082867578125000000e+04
-6.083386328125000000e+04
-6.083633593750000000e+04
-6.089221875000000000e+04
-6.085114453125000000e+04
-6.083619140625000000e+04
-6.081834765625000000e+04
-6.082113671875000000e+04
-6.082087890625000000e+04
-6.082484375000000000e+04
-6.082567187500000000e+04
-6.082730859375000000e+04
-6.082417578125000000e+04
-6.082474609375000000e+04
-6.082192968750000000e+04
-6.082604687500000000e+04
-6.082609765625000000e+04
-6.082059375000000000e+04
-6.082505859375000000e+04
-6.082590625000000000e+04
-6.082408593750000000e+04
-6.082746484375000000e+04
-6.082301953125000000e+04
-6.082338281250000000e+04
-6.082117578125000000e+04
-6.082177343750000000e+04
-6.082293359375000000e+04
-6.082144531250000000e+04
-6.081973437500000000e+04
-6.085858203125000000e+04
-6.084863281250000000e+04
-6.083697265625000000e+04
-6.082568359375000000e+04
-6.081967187500000000e+04
-6.082640625000000000e+04
-6.082695312500000000e+04
-6.082623828125000000e+04
-6.082426953125000000e+04
-6.082936718750000000e+04
-6.083055078125000000e+04
-6.082819921875000000e+04
-6.082692187500000000e+04
-6.082161328125000000e+04
-6.082265625000000000e+04
-6.082711328125000000e+04
-6.082315234375000000e+04
-6.082707031250000000e+04
-6.085646484375000000e+04
-6.084637890625000000e+04
-6.084072656250000000e+04
-6.083127734375000000e+04
-6.081441796875000000e+04
-6.080185156250000000e+04
-6.081466406250000000e+04
-6.081858984375000000e+04
-6.081356640625000000e+04
-6.081069140625000000e+04
-6.081610156250000000e+04
-6.080681640625000000e+04
-6.080762109375000000e+04
-6.081139843750000000e+04
-6.080816015625000000e+04
-6.080782421875000000e+04
-6.080719140625000000e+04
-6.085480078125000000e+04
-6.084686328125000000e+04
-6.083107031250000000e+04
-6.081574609375000000e+04
-6.081482031250000000e+04
-6.081465234375000000e+04
-6.081310546875000000e+04
-6.080864062500000000e+04
-6.080726171875000000e+04
-6.081001953125000000e+04
-6.080925000000000000e+04
-6.081226171875000000e+04
-6.081105078125000000e+04
-6.080867187500000000e+04
-6.080462109375000000e+04
-6.080751171875000000e+04
-6.080132031250000000e+04
-6.079957812500000000e+04
-6.081246484375000000e+04
-6.089201171875000000e+04
-6.085582031250000000e+04
-6.084823046875000000e+04
-6.084443750000000000e+04
-6.082989843750000000e+04
-6.083114062500000000e+04
-6.082828125000000000e+04
-6.082685546875000000e+04
-6.083223437500000000e+04
-6.083175781250000000e+04
-6.083642578125000000e+04
-6.083473828125000000e+04
-6.082857421875000000e+04
-6.082924609375000000e+04
-6.082885937500000000e+04
-6.083184375000000000e+04
-6.083552343750000000e+04
-6.083372656250000000e+04
-6.083296484375000000e+04
-6.083010546875000000e+04
-6.083463281250000000e+04
-6.083183203125000000e+04
-6.082836328125000000e+04
-6.083221875000000000e+04
-6.089201171875000000e+04
-6.083707812500000000e+04
-6.083502734375000000e+04
-6.083193750000000000e+04
-6.083467187500000000e+04
-6.083145703125000000e+04
-6.083401562500000000e+04
-6.083073046875000000e+04
-6.083834765625000000e+04
-6.083460937500000000e+04
-6.083389843750000000e+04
-6.083762890625000000e+04
-6.083723046875000000e+04
-6.083634765625000000e+04
-6.083436718750000000e+04
-6.083174218750000000e+04
-6.083499218750000000e+04
-6.083538281250000000e+04
-6.089201171875000000e+04
-6.084251953125000000e+04
-6.082212109375000000e+04
-6.082449218750000000e+04
-6.082064062500000000e+04
-6.082256250000000000e+04
-6.082404296875000000e+04
-6.082134375000000000e+04
-6.082111328125000000e+04
-6.082164843750000000e+04
-6.081508984375000000e+04
-6.082041406250000000e+04
-6.082300781250000000e+04
-6.081991796875000000e+04
-6.081917187500000000e+04
-6.081883593750000000e+04
-6.082001171875000000e+04
-6.081254296875000000e+04
-6.082347656250000000e+04
-6.082023437500000000e+04
-6.081728125000000000e+04
-6.082289062500000000e+04
-6.082300000000000000e+04
-6.082392578125000000e+04
-6.082126562500000000e+04
-6.084261718750000000e+04
-6.082217578125000000e+04
-6.082596093750000000e+04
-6.082361718750000000e+04
-6.082478906250000000e+04
-6.082288281250000000e+04
-6.082412500000000000e+04
-6.082274609375000000e+04
-6.082621875000000000e+04
-6.082899609375000000e+04
-6.083091796875000000e+04
-6.082478125000000000e+04
-6.082108203125000000e+04
-6.082370312500000000e+04
-6.082533593750000000e+04
-6.085328906250000000e+04
-6.084735937500000000e+04
-6.082864062500000000e+04
-6.081391796875000000e+04
-6.081448046875000000e+04
-6.081615234375000000e+04
-6.080873828125000000e+04
-6.081116406250000000e+04
-6.081600390625000000e+04
-6.081161718750000000e+04
-6.081407812500000000e+04
-6.081367578125000000e+04
-6.081675781250000000e+04
-6.081330859375000000e+04
-6.081039062500000000e+04
-6.080848828125000000e+04
-6.081221484375000000e+04
-6.081256640625000000e+04
-6.081339843750000000e+04
-6.080446484375000000e+04
-6.080292187500000000e+04
-6.080651953125000000e+04
-6.080812500000000000e+04
-6.081037890625000000e+04
-6.080530078125000000e+04
-6.080428515625000000e+04
-6.080203906250000000e+04
-6.079976953125000000e+04
-6.089201171875000000e+04
-6.083744921875000000e+04
-6.083170312500000000e+04
-6.082902343750000000e+04
-6.081295312500000000e+04
-6.081829687500000000e+04
-6.081295703125000000e+04
-6.080977734375000000e+04
-6.081092968750000000e+04
-6.081213281250000000e+04
-6.081790625000000000e+04
-6.081845312500000000e+04
-6.080873046875000000e+04
-6.081376953125000000e+04
-6.080586328125000000e+04
-6.081046093750000000e+04
-6.081086718750000000e+04
-6.081085937500000000e+04
-6.080726562500000000e+04
-6.081039062500000000e+04
-6.081388671875000000e+04
-6.080409375000000000e+04
-6.080548437500000000e+04
-6.080803125000000000e+04
-6.080904687500000000e+04
-6.089219140625000000e+04
-6.084968750000000000e+04
-6.084813281250000000e+04
-6.083230078125000000e+04
-6.083378125000000000e+04
-6.083596093750000000e+04
-6.083176953125000000e+04
-6.083088281250000000e+04
-6.082578515625000000e+04
-6.083304296875000000e+04
-6.083658203125000000e+04
-6.083432812500000000e+04
-6.083328125000000000e+04
-6.083342187500000000e+04
-6.083482421875000000e+04
-6.083099218750000000e+04
-6.083423437500000000e+04
-6.089219140625000000e+04
-6.084782031250000000e+04
-6.083445703125000000e+04
-6.083621875000000000e+04
-6.084116796875000000e+04
-6.084220312500000000e+04
-6.083744531250000000e+04
-6.083697656250000000e+04
-6.083487500000000000e+04
-6.083543750000000000e+04
-6.083369531250000000e+04
-6.083207812500000000e+04
-6.083291015625000000e+04
-6.083168750000000000e+04
-6.083564062500000000e+04
-6.083694140625000000e+04
-6.083891406250000000e+04
-6.083801562500000000e+04
-6.083680468750000000e+04
-6.083241015625000000e+04
-6.083745312500000000e+04
-6.086305078125000000e+04
-6.084553906250000000e+04
-6.083382031250000000e+04
-6.082164843750000000e+04
-6.082479296875000000e+04
-6.083035546875000000e+04
-6.082398046875000000e+04
-6.082198437500000000e+04
-6.082421484375000000e+04
-6.082099218750000000e+04
-6.082521875000000000e+04
-6.082442578125000000e+04
-6.082375390625000000e+04
-6.082243750000000000e+04
-6.081746875000000000e+04
-6.081978515625000000e+04
-6.082275781250000000e+04
-6.081694921875000000e+04
-6.082266796875000000e+04
-6.082060937500000000e+04
-6.082311718750000000e+04
-6.081986328125000000e+04
-6.082325781250000000e+04
-6.082039062500000000e+04
-6.081896093750000000e+04
-6.082708203125000000e+04
-6.082774609375000000e+04
-6.086113671875000000e+04
-6.084981640625000000e+04
-6.082914453125000000e+04
-6.082325390625000000e+04
-6.082171093750000000e+04
-6.082435546875000000e+04
-6.082547265625000000e+04
-6.082483203125000000e+04
-6.082172265625000000e+04
-6.082419140625000000e+04
-6.082493359375000000e+04
-6.082697656250000000e+04
-6.082248046875000000e+04
-6.082813671875000000e+04
-6.082211718750000000e+04
-6.089219140625000000e+04
-6.083470312500000000e+04
-6.081894921875000000e+04
-6.081632031250000000e+04
-6.081571093750000000e+04
-6.081058593750000000e+04
-6.081295312500000000e+04
-6.081598046875000000e+04
-6.081465625000000000e+04
-6.081690625000000000e+04
-6.081614453125000000e+04
-6.081190234375000000e+04
-6.081579687500000000e+04
-6.081300390625000000e+04
-6.081264843750000000e+04
-6.081234375000000000e+04
-6.081342187500000000e+04
-6.081151562500000000e+04
-6.080894531250000000e+04
-6.081151171875000000e+04
-6.085152343750000000e+04
-6.082628515625000000e+04
-6.081741015625000000e+04
-6.081156250000000000e+04
-6.081669531250000000e+04
-6.081686328125000000e+04
-6.081719921875000000e+04
-6.081309375000000000e+04
-6.081479687500000000e+04
-6.081732421875000000e+04
-6.081901562500000000e+04
-6.082005859375000000e+04
-6.081295703125000000e+04
-6.080841406250000000e+04
-6.081140234375000000e+04
-6.081170703125000000e+04
-6.080609765625000000e+04
-6.080973046875000000e+04
-6.081313671875000000e+04
-6.081011718750000000e+04
-6.080692968750000000e+04
-6.080364062500000000e+04
-6.081047656250000000e+04
-6.081092187500000000e+04
-6.080712109375000000e+04
-6.080572656250000000e+04
-6.080859375000000000e+04
-6.089325390625000000e+04
-6.084339453125000000e+04
-6.083056640625000000e+04
-6.083177734375000000e+04
-6.082986718750000000e+04
-6.083589453125000000e+04
-6.083484765625000000e+04
-6.083437890625000000e+04
-6.083405078125000000e+04
-6.083307421875000000e+04
-6.083364453125000000e+04
-6.083286718750000000e+04
-6.083282421875000000e+04
-6.083076171875000000e+04
-6.083024609375000000e+04
-6.083747265625000000e+04
-6.083676953125000000e+04
-6.083339453125000000e+04
-6.083086718750000000e+04
-6.083024218750000000e+04
-6.083357031250000000e+04
-6.083746093750000000e+04
-6.083498437500000000e+04
-6.089325390625000000e+04
-6.085696093750000000e+04
-6.084907812500000000e+04
-6.083541015625000000e+04
-6.083377343750000000e+04
-6.083394531250000000e+04
-6.083784375000000000e+04
-6.083775390625000000e+04
-6.083051953125000000e+04
-6.082936328125000000e+04
-6.083800781250000000e+04
-6.083394531250000000e+04
-6.083598046875000000e+04
-6.083258593750000000e+04
-6.083318750000000000e+04
-6.082973046875000000e+04
-6.083300781250000000e+04
-6.083451171875000000e+04
-6.083322265625000000e+04
-6.083475390625000000e+04
-6.083860937500000000e+04
-6.083242578125000000e+04
-6.083275000000000000e+04
-6.083654687500000000e+04
-6.083856250000000000e+04
-6.085957031250000000e+04
-6.085156250000000000e+04
-6.084250390625000000e+04
-6.083648828125000000e+04
-6.082378515625000000e+04
-6.082278125000000000e+04
-6.082093750000000000e+04
-6.082097656250000000e+04
-6.082367187500000000e+04
-6.082475390625000000e+04
-6.082330078125000000e+04
-6.082128906250000000e+04
-6.082109375000000000e+04
-6.082020703125000000e+04
-6.081514453125000000e+04
-6.081928906250000000e+04
-6.082368750000000000e+04
-6.082304296875000000e+04
-6.082153906250000000e+04
-6.082063281250000000e+04
-6.082252343750000000e+04
-6.082260546875000000e+04
-6.082478906250000000e+04
-6.082054296875000000e+04
-6.089325390625000000e+04
-6.084643359375000000e+04
-6.083748437500000000e+04
-6.083380859375000000e+04
-6.082167578125000000e+04
-6.082458203125000000e+04
-6.082407031250000000e+04
-6.082410156250000000e+04
-6.082419531250000000e+04
-6.082582031250000000e+04
-6.081788671875000000e+04
-6.082677734375000000e+04
-6.082528515625000000e+04
-6.082553515625000000e+04
-6.082511328125000000e+04
-6.082488281250000000e+04
-6.082786718750000000e+04
-6.082665234375000000e+04
-6.083013281250000000e+04
-6.085735546875000000e+04
-6.083795703125000000e+04
-6.081537500000000000e+04
-6.080696093750000000e+04
-6.080548437500000000e+04
-6.080948437500000000e+04
-6.080862109375000000e+04
-6.080932812500000000e+04
-6.080886718750000000e+04
-6.081058984375000000e+04
-6.081412109375000000e+04
-6.080591796875000000e+04
-6.080811328125000000e+04
-6.080660156250000000e+04
-6.080363671875000000e+04
-6.081058593750000000e+04
-6.080785546875000000e+04
-6.079965234375000000e+04
-6.080657812500000000e+04
-6.080402734375000000e+04
-6.080704296875000000e+04
-6.081139843750000000e+04
-6.080377343750000000e+04
-6.085746093750000000e+04
-6.084759765625000000e+04
-6.084016406250000000e+04
-6.081655859375000000e+04
-6.081164062500000000e+04
-6.081182031250000000e+04
-6.081219140625000000e+04
-6.081902343750000000e+04
-6.080951562500000000e+04
-6.080880859375000000e+04
-6.080954296875000000e+04
-6.081446484375000000e+04
-6.081476171875000000e+04
-6.081596875000000000e+04
-6.081572265625000000e+04
-6.080791015625000000e+04
-6.081244140625000000e+04
-6.081267578125000000e+04
-6.081819531250000000e+04
-6.081242578125000000e+04
-6.081686718750000000e+04
-6.081733984375000000e+04
-6.081160156250000000e+04
-6.081338671875000000e+04
-6.082176953125000000e+04
-6.081832421875000000e+04
-6.081120703125000000e+04
-6.089408593750000000e+04
-6.084141406250000000e+04
-6.083646484375000000e+04
-6.083050781250000000e+04
-6.083036718750000000e+04
-6.082950781250000000e+04
-6.083069531250000000e+04
-6.082845312500000000e+04
-6.083083203125000000e+04
-6.083025781250000000e+04
-6.082271093750000000e+04
-6.082888671875000000e+04
-6.082789843750000000e+04
-6.082701171875000000e+04
-6.083028906250000000e+04
-6.082922656250000000e+04
-6.082861718750000000e+04
-6.083070312500000000e+04
-6.082969921875000000e+04
-6.083030468750000000e+04
-6.089409375000000000e+04
-6.085161328125000000e+04
-6.084468750000000000e+04
-6.083139843750000000e+04
-6.083739453125000000e+04
-6.083793750000000000e+04
-6.083698046875000000e+04
-6.083719921875000000e+04
-6.084207421875000000e+04
-6.083958203125000000e+04
-6.083567187500000000e+04
-6.083120312500000000e+04
-6.083700390625000000e+04
-6.083647265625000000e+04
-6.083717187500000000e+04
-6.083191015625000000e+04
-6.083379687500000000e+04
-6.083260156250000000e+04
-6.083285937500000000e+04
-6.089408984375000000e+04
-6.084630078125000000e+04
-6.084150390625000000e+04
-6.082408593750000000e+04
-6.081910546875000000e+04
-6.081846484375000000e+04
-6.082080468750000000e+04
-6.082197265625000000e+04
-6.081956250000000000e+04
-6.081886718750000000e+04
-6.082556640625000000e+04
-6.082227343750000000e+04
-6.082228515625000000e+04
-6.082396875000000000e+04
-6.082387109375000000e+04
-6.081828906250000000e+04
-6.082027734375000000e+04
-6.082225390625000000e+04
-6.081757421875000000e+04
-6.081565625000000000e+04
-6.081830468750000000e+04
-6.082520312500000000e+04
-6.082670312500000000e+04
-6.082426171875000000e+04
-6.081717187500000000e+04
-6.081488281250000000e+04
-6.085989843750000000e+04
-6.085514062500000000e+04
-6.084869531250000000e+04
-6.083993359375000000e+04
-6.083346875000000000e+04
-6.082709375000000000e+04
-6.082342187500000000e+04
-6.082348046875000000e+04
-6.082349609375000000e+04
-6.081884765625000000e+04
-6.082068359375000000e+04
-6.082021484375000000e+04
-6.082417187500000000e+04
-6.081985156250000000e+04
-6.082030859375000000e+04
-6.082118359375000000e+04
-6.082107421875000000e+04
-6.082286328125000000e+04
-6.082622656250000000e+04
-6.082404687500000000e+04
-6.082032812500000000e+04
-6.082003515625000000e+04
-6.082151171875000000e+04
-6.082048046875000000e+04
-6.082192968750000000e+04
-6.081878906250000000e+04
-6.082690625000000000e+04
-6.082262890625000000e+04
-6.082112109375000000e+04
-6.089408593750000000e+04
-6.085836328125000000e+04
-6.082136718750000000e+04
-6.080737109375000000e+04
-6.080844921875000000e+04
-6.081308984375000000e+04
-6.081112890625000000e+04
-6.081006640625000000e+04
-6.081352343750000000e+04
-6.081399609375000000e+04
-6.081704296875000000e+04
-6.081010156250000000e+04
-6.081825390625000000e+04
-6.081276171875000000e+04
-6.081265234375000000e+04
-6.081348437500000000e+04
-6.081401953125000000e+04
-6.080988281250000000e+04
-6.081156640625000000e+04
-6.080951171875000000e+04
-6.081018750000000000e+04
-6.080704296875000000e+04
-6.080613671875000000e+04
-6.080715625000000000e+04
-6.081545312500000000e+04
-6.089408984375000000e+04
-6.083098046875000000e+04
-6.082710546875000000e+04
-6.081325390625000000e+04
-6.081243359375000000e+04
-6.081333203125000000e+04
-6.081339843750000000e+04
-6.081396484375000000e+04
-6.081439843750000000e+04
-6.081296875000000000e+04
-6.080905468750000000e+04
-6.080248828125000000e+04
-6.080875390625000000e+04
-6.080343359375000000e+04
-6.089226562500000000e+04
-6.086191406250000000e+04
-6.085494531250000000e+04
-6.085318359375000000e+04
-6.083015625000000000e+04
-6.083004296875000000e+04
-6.082878906250000000e+04
-6.083489453125000000e+04
-6.083309765625000000e+04
-6.083591015625000000e+04
-6.083778515625000000e+04
-6.083780859375000000e+04
-6.083367578125000000e+04
-6.083292187500000000e+04
-6.083412890625000000e+04
-6.083457421875000000e+04
-6.083183984375000000e+04
-6.083028125000000000e+04
-6.083457031250000000e+04
-6.083292187500000000e+04
-6.083384765625000000e+04
-6.082919531250000000e+04
-6.083201953125000000e+04
-6.083755859375000000e+04
-6.086392187500000000e+04
-6.085730859375000000e+04
-6.084600390625000000e+04
-6.083842187500000000e+04
-6.083476171875000000e+04
-6.083706250000000000e+04
-6.083737500000000000e+04
-6.083826953125000000e+04
-6.083408203125000000e+04
-6.083336718750000000e+04
-6.083378125000000000e+04
-6.083518750000000000e+04
-6.083524609375000000e+04
-6.083304687500000000e+04
-6.083777343750000000e+04
-6.082932031250000000e+04
-6.083410156250000000e+04
-6.083824609375000000e+04
-6.083258984375000000e+04
-6.083212109375000000e+04
-6.083776953125000000e+04
-6.083992187500000000e+04
-6.083337109375000000e+04
-6.083300000000000000e+04
-6.083431640625000000e+04
-6.083543750000000000e+04
-6.083671484375000000e+04
-6.083923046875000000e+04
-6.083626562500000000e+04
-6.085163671875000000e+04
-6.084418359375000000e+04
-6.082038281250000000e+04
-6.082159375000000000e+04
-6.082242187500000000e+04
-6.082888671875000000e+04
-6.082344921875000000e+04
-6.081570703125000000e+04
-6.082193750000000000e+04
-6.081731250000000000e+04
-6.082100781250000000e+04
-6.082137109375000000e+04
-6.082015625000000000e+04
-6.081658203125000000e+04
-6.081620703125000000e+04
-6.082315625000000000e+04
-6.082273828125000000e+04
-6.082138671875000000e+04
-6.082036328125000000e+04
-6.082205468750000000e+04
-6.082441015625000000e+04
-6.082293750000000000e+04
-6.082269531250000000e+04
-6.082869921875000000e+04
-6.084854296875000000e+04
-6.083408203125000000e+04
-6.082364453125000000e+04
-6.082687500000000000e+04
-6.082304687500000000e+04
-6.082394921875000000e+04
-6.081818359375000000e+04
-6.082154296875000000e+04
-6.082369921875000000e+04
-6.082830468750000000e+04
-6.082759375000000000e+04
-6.082923437500000000e+04
-6.082624609375000000e+04
-6.082568750000000000e+04
-6.082748046875000000e+04
-6.082452343750000000e+04
-6.082221875000000000e+04
-6.082754687500000000e+04
-6.081939062500000000e+04
-6.089226562500000000e+04
-6.084680078125000000e+04
-6.082753125000000000e+04
-6.080775781250000000e+04
-6.080826953125000000e+04
-6.081091406250000000e+04
-6.081117187500000000e+04
-6.081340234375000000e+04
-6.081022265625000000e+04
-6.081420703125000000e+04
-6.081062890625000000e+04
-6.080778125000000000e+04
-6.081267968750000000e+04
-6.081503125000000000e+04
-6.081299609375000000e+04
-6.080814843750000000e+04
-6.080572265625000000e+04
-6.081025781250000000e+04
-6.080091406250000000e+04
-6.080938671875000000e+04
-6.080610546875000000e+04
-6.080903515625000000e+04
-6.080660937500000000e+04
-6.081164843750000000e+04
-6.080980078125000000e+04
-6.080655859375000000e+04
-6.080179687500000000e+04
-6.080210546875000000e+04
-6.080059765625000000e+04
-6.080396093750000000e+04
-6.084833203125000000e+04
-6.083575000000000000e+04
-6.081463671875000000e+04
-6.081537890625000000e+04
-6.082142187500000000e+04
-6.082041796875000000e+04
-6.081235937500000000e+04
-6.081072656250000000e+04
-6.081721484375000000e+04
-6.081567187500000000e+04
-6.081489062500000000e+04
-6.081041796875000000e+04
-6.081077734375000000e+04
-6.081207031250000000e+04
-6.080860156250000000e+04
-6.081402734375000000e+04
-6.081292968750000000e+04
-6.081475390625000000e+04
-6.081764453125000000e+04
-6.080768359375000000e+04
-6.081117968750000000e+04
-6.080769140625000000e+04
-6.081230078125000000e+04
-6.085613671875000000e+04
-6.084210156250000000e+04
-6.083139062500000000e+04
-6.083050390625000000e+04
-6.083389453125000000e+04
-6.083110546875000000e+04
-6.082602343750000000e+04
-6.083428125000000000e+04
-6.083347265625000000e+04
-6.082878515625000000e+04
-6.083037500000000000e+04
-6.082926953125000000e+04
-6.083090625000000000e+04
-6.082460546875000000e+04
-6.082640234375000000e+04
-6.082302343750000000e+04
-6.082464062500000000e+04
-6.082873046875000000e+04
-6.082950390625000000e+04
-6.083058203125000000e+04
-6.083190625000000000e+04
-6.083144140625000000e+04
-6.086284375000000000e+04
-6.084900781250000000e+04
-6.083631640625000000e+04
-6.082983203125000000e+04
-6.082883203125000000e+04
-6.083387109375000000e+04
-6.083922265625000000e+04
-6.083945703125000000e+04
-6.083739062500000000e+04
-6.083703906250000000e+04
-6.083510937500000000e+04
-6.083410156250000000e+04
-6.083625000000000000e+04
-6.083409765625000000e+04
-6.083426562500000000e+04
-6.083540625000000000e+04
-6.083579687500000000e+04
-6.083200781250000000e+04
-6.083526953125000000e+04
-6.083528906250000000e+04
-6.083588281250000000e+04
-6.083595703125000000e+04
-6.083141796875000000e+04
-6.083387500000000000e+04
-6.083588281250000000e+04
-6.084994921875000000e+04
-6.082847656250000000e+04
-6.082049218750000000e+04
-6.082363281250000000e+04
-6.082549218750000000e+04
-6.082075781250000000e+04
-6.081755468750000000e+04
-6.081934765625000000e+04
-6.082175000000000000e+04
-6.082181640625000000e+04
-6.082343750000000000e+04
-6.082161328125000000e+04
-6.082662890625000000e+04
-6.082133203125000000e+04
-6.082129687500000000e+04
-6.082410156250000000e+04
-6.082020703125000000e+04
-6.082314453125000000e+04
-6.081994531250000000e+04
-6.082182031250000000e+04
-6.082285546875000000e+04
-6.081858984375000000e+04
-6.085590234375000000e+04
-6.082376562500000000e+04
-6.082308593750000000e+04
-6.082571875000000000e+04
-6.082055859375000000e+04
-6.082832031250000000e+04
-6.082516015625000000e+04
-6.082096093750000000e+04
-6.082514843750000000e+04
-6.082479296875000000e+04
-6.082395703125000000e+04
-6.082079296875000000e+04
-6.081950000000000000e+04
-6.081949218750000000e+04
-6.082644531250000000e+04
-6.082978125000000000e+04
-6.082987500000000000e+04
-6.082646093750000000e+04
-6.082660546875000000e+04
-6.082432031250000000e+04
-6.082768359375000000e+04
-6.082330468750000000e+04
-6.081113281250000000e+04
-6.080516796875000000e+04
-6.081841796875000000e+04
-6.081742578125000000e+04
-6.080474218750000000e+04
-6.081211328125000000e+04
-6.081122265625000000e+04
-6.081462109375000000e+04
-6.081762890625000000e+04
-6.081627343750000000e+04
-6.081553906250000000e+04
-6.081539843750000000e+04
-6.081256640625000000e+04
-6.081273046875000000e+04
-6.081287500000000000e+04
-6.080748437500000000e+04
-6.080852734375000000e+04
-6.080744531250000000e+04
-6.081239062500000000e+04
-6.081352343750000000e+04
-6.084792578125000000e+04
-6.081482031250000000e+04
-6.080752734375000000e+04
-6.080944921875000000e+04
-6.080852343750000000e+04
-6.081206250000000000e+04
-6.080919140625000000e+04
-6.080675390625000000e+04
-6.080635937500000000e+04
-6.081147656250000000e+04
-6.081455859375000000e+04
-6.081129687500000000e+04
-6.080827343750000000e+04
-6.081000781250000000e+04
-6.085648828125000000e+04
-6.085121875000000000e+04
-6.083726953125000000e+04
-6.083391406250000000e+04
-6.083476953125000000e+04
-6.083171875000000000e+04
-6.083128125000000000e+04
-6.083575781250000000e+04
-6.082754687500000000e+04
-6.083308203125000000e+04
-6.082835156250000000e+04
-6.083425000000000000e+04
-6.083455468750000000e+04
-6.083195312500000000e+04
-6.083029296875000000e+04
-6.082956640625000000e+04
-6.083153515625000000e+04
-6.083152343750000000e+04
-6.083232031250000000e+04
-6.085827343750000000e+04
-6.083359375000000000e+04
-6.083221875000000000e+04
-6.083428125000000000e+04
-6.083609375000000000e+04
-6.083553906250000000e+04
-6.083244531250000000e+04
-6.083811328125000000e+04
-6.083865625000000000e+04
-6.083898437500000000e+04
-6.083731640625000000e+04
-6.083459375000000000e+04
-6.083519140625000000e+04
-6.083053125000000000e+04
-6.083769531250000000e+04
-6.083457031250000000e+04
-6.089291796875000000e+04
-6.085054687500000000e+04
-6.083608593750000000e+04
-6.082819140625000000e+04
-6.082518750000000000e+04
-6.082796484375000000e+04
-6.082267578125000000e+04
-6.082231250000000000e+04
-6.082675390625000000e+04
-6.082578515625000000e+04
-6.082582812500000000e+04
-6.082040234375000000e+04
-6.082306250000000000e+04
-6.081953515625000000e+04
-6.082089062500000000e+04
-6.081844921875000000e+04
-6.082341796875000000e+04
-6.081965234375000000e+04
-6.081687890625000000e+04
-6.082159765625000000e+04
-6.089291796875000000e+04
-6.082490625000000000e+04
-6.082461328125000000e+04
-6.082354296875000000e+04
-6.082502734375000000e+04
-6.082810937500000000e+04
-6.082975781250000000e+04
-6.082650390625000000e+04
-6.083201953125000000e+04
-6.083070703125000000e+04
-6.081723437500000000e+04
-6.081815625000000000e+04
-6.082669531250000000e+04
-6.082153125000000000e+04
-6.081860546875000000e+04
-6.082013671875000000e+04
-6.082138281250000000e+04
-6.082217187500000000e+04
-6.089291796875000000e+04
-6.083574609375000000e+04
-6.081480078125000000e+04
-6.081028125000000000e+04
-6.080717578125000000e+04
-6.080883203125000000e+04
-6.081441406250000000e+04
-6.081387109375000000e+04
-6.081167578125000000e+04
-6.080821093750000000e+04
-6.081348828125000000e+04
-6.080677343750000000e+04
-6.080276953125000000e+04
-6.080112109375000000e+04
-6.080419140625000000e+04
-6.080478906250000000e+04
-6.081022656250000000e+04
-6.080515234375000000e+04
-6.089291796875000000e+04
-6.085418359375000000e+04
-6.084796875000000000e+04
-6.082833984375000000e+04
-6.082100781250000000e+04
-6.081537109375000000e+04
-6.080983984375000000e+04
-6.081245703125000000e+04
-6.082085937500000000e+04
-6.081544140625000000e+04
-6.081836718750000000e+04
-6.081485546875000000e+04
-6.081437890625000000e+04
-6.081075000000000000e+04
-6.080640625000000000e+04
-6.080909375000000000e+04
-6.080858593750000000e+04
-6.081615625000000000e+04
-6.080667968750000000e+04
-6.080238281250000000e+04
-6.080505859375000000e+04
-6.081275000000000000e+04
-6.081323046875000000e+04
-6.080886718750000000e+04
-6.080078515625000000e+04
-6.080446093750000000e+04
-6.086162109375000000e+04
-6.083661328125000000e+04
-6.083210156250000000e+04
-6.083419921875000000e+04
-6.083147656250000000e+04
-6.083348828125000000e+04
-6.083522656250000000e+04
-6.083790625000000000e+04
-6.083087890625000000e+04
-6.083466015625000000e+04
-6.083160546875000000e+04
-6.083544921875000000e+04
-6.083119531250000000e+04
-6.083127343750000000e+04
-6.082946484375000000e+04
-6.082952343750000000e+04
-6.083112109375000000e+04
-6.082454296875000000e+04
-6.082912500000000000e+04
-6.083035546875000000e+04
-6.082970703125000000e+04
-6.084755078125000000e+04
-6.083848828125000000e+04
-6.083431640625000000e+04
-6.083721484375000000e+04
-6.083860546875000000e+04
-6.083500000000000000e+04
-6.083542578125000000e+04
-6.083536328125000000e+04
-6.083733593750000000e+04
-6.083344531250000000e+04
-6.083215625000000000e+04
-6.083364843750000000e+04
-6.083376171875000000e+04
-6.083553906250000000e+04
-6.083474609375000000e+04
-6.083490234375000000e+04
-6.083658203125000000e+04
-6.083535546875000000e+04
-6.083367187500000000e+04
-6.083692578125000000e+04
-6.083248046875000000e+04
-6.083438281250000000e+04
-6.085327343750000000e+04
-6.084331250000000000e+04
-6.083391406250000000e+04
-6.082782421875000000e+04
-6.082191796875000000e+04
-6.081620312500000000e+04
-6.082082812500000000e+04
-6.082111328125000000e+04
-6.082061718750000000e+04
-6.082098828125000000e+04
-6.081993750000000000e+04
-6.081366406250000000e+04
-6.081980468750000000e+04
-6.081845703125000000e+04
-6.081724609375000000e+04
-6.081946093750000000e+04
-6.082035937500000000e+04
-6.082469140625000000e+04
-6.081871093750000000e+04
-6.082242187500000000e+04
-6.082400781250000000e+04
-6.081681640625000000e+04
-6.081901953125000000e+04
-6.085580078125000000e+04
-6.084127734375000000e+04
-6.083721875000000000e+04
-6.083288671875000000e+04
-6.082642578125000000e+04
-6.083045312500000000e+04
-6.082751953125000000e+04
-6.082529687500000000e+04
-6.082101953125000000e+04
-6.082255078125000000e+04
-6.082695703125000000e+04
-6.082765234375000000e+04
-6.082832812500000000e+04
-6.082317578125000000e+04
-6.082230859375000000e+04
-6.082249218750000000e+04
-6.082255859375000000e+04
-6.082334765625000000e+04
-6.081696484375000000e+04
-6.082498828125000000e+04
-6.082153125000000000e+04
-6.082383593750000000e+04
-6.082338281250000000e+04
-6.082316796875000000e+04
-6.082653515625000000e+04
-6.082578515625000000e+04
-6.082204296875000000e+04
-6.082272656250000000e+04
-6.082891796875000000e+04