-8.103319257497787476e-02 5.441059112548828125e+00 1.869737982749938965e+00 5.441059112548828125e+00 -1.089070129394531250e+01 1.520849418640136719e+01 1.869737982749938965e+00 1.520849418640136719e+01 1.204586887359619141e+01
-7.599782943725585938e+00 -1.534480285644531250e+01 1.031927108764648438e+00 -1.534480285644531250e+01 -6.361928939819335938e+00 -4.799370467662811279e-01 1.031927108764648438e+00 -4.799370467662811279e-01 -2.672224044799804688e+01
-6.563303947448730469e+00 -6.962273120880126953e+00 9.228073120117187500e+00 -6.962273120880126953e+00 -1.420227909088134766e+01 -7.353886604309082031e+00 9.228073120117187500e+00 -7.353886604309082031e+00 -3.391426467895507812e+01
-1.364956855773925781e+01 -5.288830280303955078e+00 6.016845226287841797e+00 -5.288830280303955078e+00 -2.410581779479980469e+01 4.860653400421142578e+00 6.016845226287841797e+00 4.860653400421142578e+00 -4.270565986633300781e+00
-2.912775993347167969e+01 1.380703735351562500e+01 -1.123080825805664062e+01 1.380703735351562500e+01 -4.248822402954101562e+01 -1.321846103668212891e+01 -1.123080825805664062e+01 -1.321846103668212891e+01 -9.336297988891601562e+00
-2.890786170959472656e+01 -8.715561866760253906e+00 -5.351906299591064453e+00 -8.715561866760253906e+00 -4.358628845214843750e+01 7.117334842681884766e+00 -5.351906299591064453e+00 7.117334842681884766e+00 -4.379711151123046875e+01
-4.540842437744140625e+01 3.095492362976074219e+00 1.031814479827880859e+01 3.095492362976074219e+00 -4.036399841308593750e+01 7.149055004119873047e+00 1.031814479827880859e+01 7.149055004119873047e+00 -2.872650146484375000e+01
2.206270980834960938e+01 -2.112002372741699219e+00 6.116448402404785156e+00 -2.112002372741699219e+00 -1.823386955261230469e+01 4.707575798034667969e+00 6.116448402404785156e+00 4.707575798034667969e+00 -5.596545696258544922e+00
-2.196415960788726807e-01 -1.170138001441955566e+00 8.253796577453613281e+00 -1.170138001441955566e+00 -1.934884071350097656e+01 1.013775253295898438e+01 8.253796577453613281e+00 1.013775253295898438e+01 -7.164958953857421875e+00
-3.068783569335937500e+01 -1.887624621391296387e+00 -5.782099246978759766e+00 -1.887624621391296387e+00 -2.224331092834472656e+01 -1.196778583526611328e+01 -5.782099246978759766e+00 -1.196778583526611328e+01 -3.619570159912109375e+01
-3.567090272903442383e+00 -4.011192917823791504e-01 4.991271972656250000e+00 -4.011192917823791504e-01 -4.480105209350585938e+01 2.151530027389526367e+00 4.991271972656250000e+00 2.151530027389526367e+00 -1.611087036132812500e+01
6.572178840637207031e+00 -3.612765550613403320e+00 4.081259250640869141e+00 -3.612765550613403320e+00 -1.903340721130371094e+01 -3.113670825958251953e+00 4.081259250640869141e+00 -3.113670825958251953e+00 2.966241359710693359e+00
-2.075499153137207031e+01 -1.972805023193359375e+01 -1.007833424955606461e-02 -1.972805023193359375e+01 -2.222847175598144531e+01 -7.670777320861816406e+00 -1.007833424955606461e-02 -7.670777320861816406e+00 1.440537834167480469e+01
-3.727188110351562500e+01 -2.664804840087890625e+01 1.433689117431640625e+01 -2.664804840087890625e+01 -2.415852737426757812e+01 -5.343374252319335938e+00 1.433689117431640625e+01 -5.343374252319335938e+00 -4.554045867919921875e+01
4.625048160552978516e+00 -1.189869117736816406e+01 -4.627626538276672363e-01 -1.189869117736816406e+01 -2.061118316650390625e+01 -1.317564392089843750e+01 -4.627626538276672363e-01 -1.317564392089843750e+01 2.037924766540527344e+01
-2.628226661682128906e+01 -6.390340805053710938e+00 -1.091962528228759766e+01 -6.390340805053710938e+00 -2.157191467285156250e+01 1.301064729690551758e+00 -1.091962528228759766e+01 1.301064729690551758e+00 -4.771277236938476562e+01
-4.890151977539062500e+00 -2.787384092807769775e-01 -4.923311233520507812e+00 -2.787384092807769775e-01 -4.525001144409179688e+01 1.050294303894042969e+01 -4.923311233520507812e+00 1.050294303894042969e+01 -3.839551544189453125e+01
-9.541967511177062988e-01 -1.359412097930908203e+01 -1.170683574676513672e+01 -1.359412097930908203e+01 -4.828968429565429688e+01 -1.056279763579368591e-01 -1.170683574676513672e+01 -1.056279763579368591e-01 1.524562001228332520e+00
-1.139701557159423828e+01 1.885502624511718750e+01 -1.966818237304687500e+01 1.885502624511718750e+01 -1.663534164428710938e+01 -3.467282056808471680e+00 -1.966818237304687500e+01 -3.467282056808471680e+00 -9.948949813842773438e+00
-3.545499420166015625e+01 1.166521668434143066e+00 9.566830396652221680e-01 1.166521668434143066e+00 -1.132783603668212891e+01 8.872809410095214844e+00 9.566830396652221680e-01 8.872809410095214844e+00 -3.595084381103515625e+01
9.831676483154296875e+00 -8.202902793884277344e+00 1.313529396057128906e+01 -8.202902793884277344e+00 -5.114163398742675781e+00 -8.579263687133789062e+00 1.313529396057128906e+01 -8.579263687133789062e+00 -3.421596908569335938e+01
1.496494102478027344e+01 -1.440879821777343750e+00 -2.137047052383422852e+00 -1.440879821777343750e+00 -1.130390644073486328e+01 1.180580019950866699e+00 -2.137047052383422852e+00 1.180580019950866699e+00 2.318737030029296875e+00
-1.577321338653564453e+01 1.192392253875732422e+01 -1.777349472045898438e+01 1.192392253875732422e+01 -2.676607704162597656e+01 5.175027370452880859e+00 -1.777349472045898438e+01 5.175027370452880859e+00 -7.116583347320556641e+00
-1.804594039916992188e+01 6.455344676971435547e+00 3.220350027084350586e+00 6.455344676971435547e+00 2.384314775466918945e+00 3.656364679336547852e+00 3.220350027084350586e+00 3.656364679336547852e+00 -3.505476760864257812e+01
-1.998780059814453125e+01 1.624985504150390625e+01 2.647657203674316406e+01 1.624985504150390625e+01 -9.840647888183593750e+01 9.642896652221679688e+00 2.647657203674316406e+01 9.642896652221679688e+00 -6.853008270263671875e+01
4.081375122070312500e+00 -6.865737438201904297e+00 1.036292648315429688e+01 -6.865737438201904297e+00 1.047683525085449219e+01 -7.113074779510498047e+00 1.036292648315429688e+01 -7.113074779510498047e+00 -5.810580253601074219e+00
-2.040465831756591797e+00 1.552168130874633789e+00 -2.910181045532226562e+00 1.552168130874633789e+00 5.845146656036376953e+00 -2.089328289031982422e+00 -2.910181045532226562e+00 -2.089328289031982422e+00 -5.054241561889648438e+01
4.816088199615478516e+00 -9.192799329757690430e-01 1.476503562927246094e+01 -9.192799329757690430e-01 -3.153854370117187500e+00 -8.413137435913085938e+00 1.476503562927246094e+01 -8.413137435913085938e+00 -1.962157821655273438e+01
-9.767436027526855469e+00 -6.840055465698242188e+00 -1.762739372253417969e+01 -6.840055465698242188e+00 -1.584082794189453125e+01 -2.770929574966430664e+00 -1.762739372253417969e+01 -2.770929574966430664e+00 -3.171255493164062500e+01
-5.417179870605468750e+01 8.620968818664550781e+00 -1.162938690185546875e+01 8.620968818664550781e+00 -2.423789215087890625e+01 3.539110565185546875e+01 -1.162938690185546875e+01 3.539110565185546875e+01 -3.263507461547851562e+01
2.139146041870117188e+01 -1.446202087402343750e+01 1.077363586425781250e+01 -1.446202087402343750e+01 1.470758438110351562e+01 -8.226030349731445312e+00 1.077363586425781250e+01 -8.226030349731445312e+00 1.572836017608642578e+01
5.738032341003417969e+00 4.602578163146972656e+00 -1.446218585968017578e+01 4.602578163146972656e+00 -1.967241096496582031e+01 7.650605201721191406e+00 -1.446218585968017578e+01 7.650605201721191406e+00 -1.118797874450683594e+01
-4.001015853881835938e+01 8.402127265930175781e+00 -1.788616895675659180e+00 8.402127265930175781e+00 7.902477741241455078e+00 1.720542716979980469e+01 -1.788616895675659180e+00 1.720542716979980469e+01 2.628265857696533203e+00
7.286155223846435547e-02 6.625374794006347656e+00 2.546843528747558594e+01 6.625374794006347656e+00 -1.417583656311035156e+01 9.848117828369140625e+00 2.546843528747558594e+01 9.848117828369140625e+00 4.720774173736572266e+00
1.587460327148437500e+01 -1.651149749755859375e+01 -1.498070907592773438e+01 -1.651149749755859375e+01 3.331497907638549805e+00 -9.339918136596679688e+00 -1.498070907592773438e+01 -9.339918136596679688e+00 -1.483949375152587891e+01
-1.400204849243164062e+01 -4.331008911132812500e+00 -1.661051368713378906e+01 -4.331008911132812500e+00 8.933433532714843750e+00 1.314817333221435547e+01 -1.661051368713378906e+01 1.314817333221435547e+01 5.531895637512207031e+00
3.731231212615966797e+00 -7.528029918670654297e+00 1.261765599250793457e+00 -7.528029918670654297e+00 5.182629585266113281e+00 6.186484336853027344e+00 1.261765599250793457e+00 6.186484336853027344e+00 2.289134788513183594e+01
-6.382297515869140625e+00 -1.594705200195312500e+01 1.031921577453613281e+01 -1.594705200195312500e+01 -7.001812458038330078e+00 -2.078050994873046875e+01 1.031921577453613281e+01 -2.078050994873046875e+01 -1.980500602722167969e+01
2.419388580322265625e+01 -1.289731597900390625e+01 -1.360207366943359375e+01 -1.289731597900390625e+01 1.796049690246582031e+01 1.089492225646972656e+01 -1.360207366943359375e+01 1.089492225646972656e+01 6.674947738647460938e+00
-1.710341262817382812e+01 1.327521896362304688e+01 2.172875404357910156e+00 1.327521896362304688e+01 -1.121395707130432129e+00 6.237303733825683594e+00 2.172875404357910156e+00 6.237303733825683594e+00 -2.468973159790039062e+01
1.796010208129882812e+01 2.424299049377441406e+01 -1.695320701599121094e+01 2.424299049377441406e+01 -6.870615482330322266e-02 6.325212121009826660e-01 -1.695320701599121094e+01 6.325212121009826660e-01 -1.613313674926757812e+01
-8.737545967102050781e+00 -1.600961685180664062e+01 -6.271789073944091797e+00 -1.600961685180664062e+01 1.306031197309494019e-01 1.660638332366943359e+00 -6.271789073944091797e+00 1.660638332366943359e+00 -1.010427188873291016e+01
-6.712883710861206055e-01 -6.779453754425048828e+00 1.059497928619384766e+01 -6.779453754425048828e+00 -2.123020935058593750e+01 -9.967692375183105469e+00 1.059497928619384766e+01 -9.967692375183105469e+00 -1.443691825866699219e+01
3.362229168415069580e-01 1.004726409912109375e+01 -1.331426906585693359e+01 1.004726409912109375e+01 3.908782243728637695e+00 1.453760814666748047e+01 -1.331426906585693359e+01 1.453760814666748047e+01 -1.744718360900878906e+01
-3.221354246139526367e+00 1.431697249412536621e+00 -2.110209274291992188e+01 1.431697249412536621e+00 7.568079471588134766e+00 1.187516403198242188e+01 -2.110209274291992188e+01 1.187516403198242188e+01 -2.218173980712890625e+01
-3.695715665817260742e+00 -1.500136280059814453e+01 1.451174163818359375e+01 -1.500136280059814453e+01 1.554028797149658203e+01 1.323342800140380859e+00 1.451174163818359375e+01 1.323342800140380859e+00 -1.550106525421142578e+01
-1.765450477600097656e+00 -1.539019584655761719e+01 -4.392379760742187500e+00 -1.539019584655761719e+01 -4.066805362701416016e+00 -6.120631694793701172e-01 -4.392379760742187500e+00 -6.120631694793701172e-01 -2.116015243530273438e+01
-6.577293872833251953e+00 2.888567686080932617e+00 7.768671035766601562e+00 2.888567686080932617e+00 2.011550664901733398e+00 1.186064338684082031e+01 7.768671035766601562e+00 1.186064338684082031e+01 -1.452058696746826172e+01
-5.172726631164550781e+00 -8.539323806762695312e+00 1.007058429718017578e+01 -8.539323806762695312e+00 4.908287525177001953e+00 8.466498851776123047e-01 1.007058429718017578e+01 8.466498851776123047e-01 -3.248486757278442383e+00
3.260474443435668945e+00 1.053635597229003906e+01 8.226433753967285156e+00 1.053635597229003906e+01 -1.515837001800537109e+01 -2.980103790760040283e-01 8.226433753967285156e+00 -2.980103790760040283e-01 -9.503946900367736816e-01
-2.880215644836425781e+01 -1.396940040588378906e+01 9.761757850646972656e-01 -1.396940040588378906e+01 -2.691254615783691406e+01 1.892376327514648438e+01 9.761757850646972656e-01 1.892376327514648438e+01 -9.449203491210937500e+00
-1.998777198791503906e+01 1.624984359741210938e+01 2.647660064697265625e+01 1.624984359741210938e+01 -9.840651702880859375e+01 9.642893791198730469e+00 2.647660064697265625e+01 9.642893791198730469e+00 -6.853008270263671875e+01
-3.337435150146484375e+01 1.492401885986328125e+01 7.516139984130859375e+00 1.492401885986328125e+01 -5.614240169525146484e+00 -4.976081848144531250e-01 7.516139984130859375e+00 -4.976081848144531250e-01 -4.709521102905273438e+01
-3.440390014648437500e+01 1.325127792358398438e+01 -3.210309267044067383e+00 1.325127792358398438e+01 -4.633071517944335938e+01 1.123301601409912109e+01 -3.210309267044067383e+00 1.123301601409912109e+01 -1.344694137573242188e+01
-2.066288757324218750e+01 3.086050415039062500e+01 3.851687192916870117e+00 3.086050415039062500e+01 -1.218280410766601562e+01 -8.804808616638183594e+00 3.851687192916870117e+00 -8.804808616638183594e+00 -3.780127716064453125e+01
1.381167602539062500e+01 -6.437306404113769531e+00 1.216736412048339844e+01 -6.437306404113769531e+00 -6.702447414398193359e+00 -1.530711460113525391e+01 1.216736412048339844e+01 -1.530711460113525391e+01 -1.985385704040527344e+01
-3.129511833190917969e+01 -2.013563728332519531e+01 -8.817879676818847656e+00 -2.013563728332519531e+01 -3.572048950195312500e+01 -1.359419536590576172e+01 -8.817879676818847656e+00 -1.359419536590576172e+01 -3.575659179687500000e+01
-3.045703315734863281e+01 3.311018705368041992e+00 1.925554084777832031e+01 3.311018705368041992e+00 -7.080997943878173828e+00 2.489682769775390625e+01 1.925554084777832031e+01 2.489682769775390625e+01 -1.799514961242675781e+01
-2.628476619720458984e+00 1.363060235977172852e+00 1.315465641021728516e+01 1.363060235977172852e+00 -2.022021102905273438e+01 1.151157760620117188e+01 1.315465641021728516e+01 1.151157760620117188e+01 -7.832968235015869141e+00
-5.328632593154907227e-01 2.508486509323120117e+00 -1.177024841308593750e+01 2.508486509323120117e+00 -3.434929275512695312e+01 1.179557514190673828e+01 -1.177024841308593750e+01 1.179557514190673828e+01 -3.064794921875000000e+01
-3.487023925781250000e+01 6.031543731689453125e+00 3.826983213424682617e+00 6.031543731689453125e+00 -4.334112930297851562e+01 4.191097259521484375e+00 3.826983213424682617e+00 4.191097259521484375e+00 -2.137388610839843750e+01
-2.486136817932128906e+01 -5.690375804901123047e+00 3.109429168701171875e+01 -5.690375804901123047e+00 -6.336529159545898438e+01 -1.131621837615966797e+01 3.109429168701171875e+01 -1.131621837615966797e+01 -3.361693954467773438e+01
-1.184625244140625000e+01 1.041434860229492188e+01 -1.856283378601074219e+01 1.041434860229492188e+01 -4.068502807617187500e+01 -1.446742153167724609e+01 -1.856283378601074219e+01 -1.446742153167724609e+01 -2.985329246520996094e+01
-2.646419525146484375e+01 -2.774837684631347656e+01 7.649430751800537109e+00 -2.774837684631347656e+01 -2.785850334167480469e+01 4.582365512847900391e+00 7.649430751800537109e+00 4.582365512847900391e+00 -3.285324478149414062e+01
8.424748420715332031e+00 -1.468126773834228516e+01 -8.052457809448242188e+00 -1.468126773834228516e+01 -1.026598644256591797e+01 -7.984176635742187500e+00 -8.052457809448242188e+00 -7.984176635742187500e+00 -1.120246505737304688e+01
-1.377919197082519531e+01 4.394978523254394531e+00 -3.163588762283325195e+00 4.394978523254394531e+00 -2.793920707702636719e+01 -1.555681943893432617e+00 -3.163588762283325195e+00 -1.555681943893432617e+00 -3.158321762084960938e+01
-6.882112979888916016e+00 -5.343608856201171875e+00 1.044129657745361328e+01 -5.343608856201171875e+00 -2.306254959106445312e+01 -5.437360286712646484e+00 1.044129657745361328e+01 -5.437360286712646484e+00 4.484575271606445312e+00
-1.418303966522216797e+01 -2.146095991134643555e+00 -4.524335384368896484e+00 -2.146095991134643555e+00 -2.074783706665039062e+01 7.184798240661621094e+00 -4.524335384368896484e+00 7.184798240661621094e+00 -6.598355865478515625e+01
-1.818038177490234375e+01 3.018147945404052734e+00 -1.855363464355468750e+01 3.018147945404052734e+00 -5.331802845001220703e+00 2.396623611450195312e+00 -1.855363464355468750e+01 2.396623611450195312e+00 -1.878219795227050781e+01
-2.256714057922363281e+01 1.533975362777709961e+00 -1.012572097778320312e+01 1.533975362777709961e+00 -4.094905853271484375e+01 2.143397712707519531e+01 -1.012572097778320312e+01 2.143397712707519531e+01 -5.359101486206054688e+01
1.953561973571777344e+01 9.426270484924316406e+00 -1.001426601409912109e+01 9.426270484924316406e+00 -4.076888656616210938e+01 -2.746229743957519531e+01 -1.001426601409912109e+01 -2.746229743957519531e+01 -1.746934890747070312e+01
1.263827204704284668e+00 -5.970370769500732422e+00 -1.466691684722900391e+01 -5.970370769500732422e+00 -3.870927047729492188e+01 6.076096057891845703e+00 -1.466691684722900391e+01 6.076096057891845703e+00 -1.424765205383300781e+01
-2.625230407714843750e+01 -2.355341911315917969e+01 1.481450647115707397e-01 -2.355341911315917969e+01 -2.674315071105957031e+01 1.319258117675781250e+01 1.481450647115707397e-01 1.319258117675781250e+01 -3.112830734252929688e+01
-3.338793182373046875e+01 -2.131433486938476562e+00 1.461101913452148438e+01 -2.131433486938476562e+00 -1.817528724670410156e+01 -1.646872282028198242e+00 1.461101913452148438e+01 -1.646872282028198242e+00 -4.135927581787109375e+01
-2.000507736206054688e+01 -2.537507772445678711e+00 1.623957252502441406e+01 -2.537507772445678711e+00 2.437602281570434570e+00 1.158962059020996094e+01 1.623957252502441406e+01 1.158962059020996094e+01 9.048961639404296875e+00
-5.308876800537109375e+01 -1.662831902503967285e+00 -1.937431335449218750e+01 -1.662831902503967285e+00 -3.752935791015625000e+01 1.112107372283935547e+01 -1.937431335449218750e+01 1.112107372283935547e+01 -2.922244071960449219e+01
1.563532924652099609e+01 1.833412742614746094e+01 6.500858306884765625e+00 1.833412742614746094e+01 -1.246325969696044922e+01 1.737491726875305176e+00 6.500858306884765625e+00 1.737491726875305176e+00 -5.272769927978515625e+00
3.476679992675781250e+01 -1.204416847229003906e+01 5.304587841033935547e+00 -1.204416847229003906e+01 3.229322195053100586e+00 2.674455881118774414e+00 5.304587841033935547e+00 2.674455881118774414e+00 3.303630590438842773e+00
-1.085894680023193359e+01 -6.446928501129150391e+00 1.448806190490722656e+01 -6.446928501129150391e+00 -6.371912765502929688e+01 4.075597286224365234e+00 1.448806190490722656e+01 4.075597286224365234e+00 -3.087637901306152344e+01
1.531769943237304688e+01 3.884325265884399414e+00 -6.326786994934082031e+00 3.884325265884399414e+00 3.992013454437255859e+00 1.219040393829345703e+01 -6.326786994934082031e+00 1.219040393829345703e+01 1.570004940032958984e+01
-1.740662693977355957e+00 -1.235503768920898438e+01 5.738507747650146484e+00 -1.235503768920898438e+01 -2.174195289611816406e+01 1.191180896759033203e+01 5.738507747650146484e+00 1.191180896759033203e+01 -1.215725708007812500e+01
-1.393421554565429688e+01 1.211942195892333984e+01 5.514737606048583984e+00 1.211942195892333984e+01 1.046460628509521484e+01 1.078935623168945312e+01 5.514737606048583984e+00 1.078935623168945312e+01 -6.522193908691406250e+00
-2.646493721008300781e+01 1.785715103149414062e+01 -1.598328399658203125e+01 1.785715103149414062e+01 -4.381209984421730042e-02 -4.495400428771972656e+00 -1.598328399658203125e+01 -4.495400428771972656e+00 9.960927009582519531e+00
2.131100273132324219e+01 -1.950317502021789551e+00 -1.636543464660644531e+01 -1.950317502021789551e+00 1.540177059173583984e+01 -8.421263694763183594e+00 -1.636543464660644531e+01 -8.421263694763183594e+00 1.225745320320129395e+00
-2.074457550048828125e+01 -7.883503437042236328e-01 1.199444293975830078e+01 -7.883503437042236328e-01 1.909653902053833008e+00 4.081182956695556641e+00 1.199444293975830078e+01 4.081182956695556641e+00 -2.601008033752441406e+01
-5.772594928741455078e+00 -5.018700122833251953e+00 1.193382358551025391e+01 -5.018700122833251953e+00 -2.225757980346679688e+01 3.833938360214233398e+00 1.193382358551025391e+01 3.833938360214233398e+00 5.212417602539062500e+00
-2.835202407836914062e+01 2.527097702026367188e+00 5.677446842193603516e+00 2.527097702026367188e+00 -1.714598464965820312e+01 -1.388063716888427734e+01 5.677446842193603516e+00 -1.388063716888427734e+01 -3.859063720703125000e+01
-1.967237472534179688e+01 -6.613394021987915039e-01 -3.693057060241699219e+00 -6.613394021987915039e-01 -3.155862092971801758e+00 -1.089498901367187500e+01 -3.693057060241699219e+00 -1.089498901367187500e+01 -4.462431335449218750e+01
-3.205916595458984375e+01 -1.547639560699462891e+01 4.455325603485107422e+00 -1.547639560699462891e+01 1.376857185363769531e+01 -1.008709335327148438e+01 4.455325603485107422e+00 -1.008709335327148438e+01 1.342536544799804688e+01
-1.676717948913574219e+01 -9.160311698913574219e+00 1.068303775787353516e+01 -9.160311698913574219e+00 -4.188515472412109375e+01 5.445811748504638672e+00 1.068303775787353516e+01 5.445811748504638672e+00 -2.342370033264160156e+01
1.138107204437255859e+01 -2.512407302856445312e+01 4.203070163726806641e+00 -2.512407302856445312e+01 -2.006996726989746094e+01 -7.824973464012145996e-01 4.203070163726806641e+00 -7.824973464012145996e-01 -1.659354591369628906e+01
1.055990791320800781e+01 -1.677589988708496094e+01 -2.945510625839233398e+00 -1.677589988708496094e+01 -3.713610887527465820e+00 -1.381532859802246094e+01 -2.945510625839233398e+00 -1.381532859802246094e+01 3.694888305664062500e+01
-9.980657577514648438e+00 -6.435748577117919922e+00 -1.904529333114624023e+00 -6.435748577117919922e+00 -1.691382598876953125e+01 1.567444515228271484e+01 -1.904529333114624023e+00 1.567444515228271484e+01 -2.057819938659667969e+01
8.519193649291992188e+00 -3.488041877746582031e+00 2.441122293472290039e+00 -3.488041877746582031e+00 -2.609854888916015625e+01 1.375046443939208984e+01 2.441122293472290039e+00 1.375046443939208984e+01 -1.006245517730712891e+01
-1.891713714599609375e+01 -1.499480819702148438e+01 -1.266814041137695312e+01 -1.499480819702148438e+01 -3.441843271255493164e+00 7.804886341094970703e+00 -1.266814041137695312e+01 7.804886341094970703e+00 1.303519606590270996e+00
-4.890975952148437500e+00 -6.531755924224853516e+00 1.531915760040283203e+01 -6.531755924224853516e+00 -1.627523231506347656e+01 -4.393666267395019531e+00 1.531915760040283203e+01 -4.393666267395019531e+00 -1.102850055694580078e+01
-2.555524826049804688e+01 9.773736000061035156e-01 4.865329265594482422e+00 9.773736000061035156e-01 -1.826885986328125000e+01 5.287118911743164062e+00 4.865329265594482422e+00 5.287118911743164062e+00 -2.091467666625976562e+01
-2.762474250793457031e+01 3.887887239456176758e+00 -1.282562136650085449e+00 3.887887239456176758e+00 -3.132189369201660156e+01 -4.865746021270751953e+00 -1.282562136650085449e+00 -4.865746021270751953e+00 -2.923271942138671875e+01
-1.898619270324707031e+01 5.895559310913085938e+00 1.669684982299804688e+01 5.895559310913085938e+00 -2.084869766235351562e+01 -1.200265502929687500e+01 1.669684982299804688e+01 -1.200265502929687500e+01 -2.848084259033203125e+01
-2.609712409973144531e+01 -2.045794677734375000e+01 -1.655368423461914062e+01 -2.045794677734375000e+01 -4.394628906250000000e+01 -3.030109643936157227e+00 -1.655368423461914062e+01 -3.030109643936157227e+00 -7.178916931152343750e+00
-2.228532314300537109e+00 8.046015739440917969e+00 -1.824427413940429688e+01 8.046015739440917969e+00 -2.812657165527343750e+01 7.292282104492187500e+00 -1.824427413940429688e+01 7.292282104492187500e+00 1.646392822265625000e+01
-2.314260482788085938e+01 -7.947098255157470703e+00 8.579643249511718750e+00 -7.947098255157470703e+00 -4.764896774291992188e+01 -9.235924482345581055e-01 8.579643249511718750e+00 -9.235924482345581055e-01 -3.049256896972656250e+01
-5.727866744995117188e+01 -3.768499612808227539e+00 -2.253137969970703125e+01 -3.768499612808227539e+00 -2.081754112243652344e+01 -2.703589439392089844e+01 -2.253137969970703125e+01 -2.703589439392089844e+01 -4.031151962280273438e+01
-2.575701475143432617e+00 -4.978783130645751953e+00 -9.803151130676269531e+00 -4.978783130645751953e+00 -1.967617034912109375e+01 5.337522983551025391e+00 -9.803151130676269531e+00 5.337522983551025391e+00 -1.609195327758789062e+01
7.122896671295166016e+00 5.251920223236083984e+00 -9.924211502075195312e+00 5.251920223236083984e+00 -2.793875885009765625e+01 1.282118988037109375e+01 -9.924211502075195312e+00 1.282118988037109375e+01 2.530475616455078125e+00
-2.528684997558593750e+01 -3.708758115768432617e+00 2.058990001678466797e+00 -3.708758115768432617e+00 -3.787151718139648438e+01 6.570579528808593750e+00 2.058990001678466797e+00 6.570579528808593750e+00 -5.066145706176757812e+01
-3.630597352981567383e+00 2.199328184127807617e+00 2.826529121398925781e+01 2.199328184127807617e+00 -1.694554901123046875e+01 9.199406623840332031e+00 2.826529121398925781e+01 9.199406623840332031e+00 1.218183422088623047e+01
-2.216776847839355469e+01 1.747472000122070312e+01 -4.745482921600341797e+00 1.747472000122070312e+01 -1.328423690795898438e+01 -1.504789066314697266e+01 -4.745482921600341797e+00 -1.504789066314697266e+01 -2.379551506042480469e+01
2.812682151794433594e+01 -2.718885040283203125e+01 1.278538799285888672e+01 -2.718885040283203125e+01 -1.493465423583984375e+01 -1.124618244171142578e+01 1.278538799285888672e+01 -1.124618244171142578e+01 1.391612815856933594e+01
-1.765562820434570312e+01 1.063942146301269531e+01 -5.154650688171386719e+00 1.063942146301269531e+01 -2.808495330810546875e+01 -2.543707609176635742e+00 -5.154650688171386719e+00 -2.543707609176635742e+00 -4.434078598022460938e+01
-5.275839614868164062e+01 3.503852128982543945e+00 -6.478515625000000000e+00 3.503852128982543945e+00 -4.535573959350585938e+01 5.835623264312744141e+00 -6.478515625000000000e+00 5.835623264312744141e+00 -1.105899524688720703e+01
-6.210233688354492188e+01 -2.500689268112182617e+00 -1.293105030059814453e+01 -2.500689268112182617e+00 -4.505876541137695312e+01 -7.939611434936523438e+00 -1.293105030059814453e+01 -7.939611434936523438e+00 -3.781836700439453125e+01
5.197114944458007812e+00 4.981904506683349609e+00 -1.412689447402954102e+00 4.981904506683349609e+00 -5.219383239746093750e-01 3.810957431793212891e+00 -1.412689447402954102e+00 3.810957431793212891e+00 5.495037078857421875e+00
-1.462213706970214844e+01 -7.411849975585937500e+00 3.836750030517578125e+00 -7.411849975585937500e+00 -4.716380596160888672e+00 -1.296570491790771484e+01 3.836750030517578125e+00 -1.296570491790771484e+01 -1.720309448242187500e+01
4.661113262176513672e+00 -1.301042079925537109e+01 -1.858512282371520996e+00 -1.301042079925537109e+01 -2.263137054443359375e+01 2.154430007934570312e+01 -1.858512282371520996e+00 2.154430007934570312e+01 -1.062117195129394531e+01
1.158622360229492188e+01 2.943364906311035156e+01 -1.279760360717773438e+00 2.943364906311035156e+01 -1.554840183258056641e+01 -8.980403900146484375e+00 -1.279760360717773438e+00 -8.980403900146484375e+00 -3.609299468994140625e+01
-2.470618057250976562e+01 -2.489113807678222656e+00 2.491132545471191406e+01 -2.489113807678222656e+00 -2.133569526672363281e+01 -3.424946069717407227e+00 2.491132545471191406e+01 -3.424946069717407227e+00 -2.230793571472167969e+01
-1.309630107879638672e+01 5.648503303527832031e-01 -3.219460296630859375e+01 5.648503303527832031e-01 -9.893607139587402344e+00 8.230010986328125000e+00 -3.219460296630859375e+01 8.230010986328125000e+00 -1.739978671073913574e+00
1.914888763427734375e+01 -6.591006755828857422e+00 -7.319277286529541016e+00 -6.591006755828857422e+00 3.806077575683593750e+01 -5.844278812408447266e+00 -7.319277286529541016e+00 -5.844278812408447266e+00 -9.699823379516601562e+00
2.362012863159179688e+00 -2.044812583923339844e+01 -1.953391838073730469e+01 -2.044812583923339844e+01 -1.979623222351074219e+01 -8.218892097473144531e+00 -1.953391838073730469e+01 -8.218892097473144531e+00 -9.603602409362792969e+00
-4.011820602416992188e+01 -9.925181388854980469e+00 7.599514007568359375e+00 -9.925181388854980469e+00 1.665032577514648438e+01 -2.882901430130004883e+00 7.599514007568359375e+00 -2.882901430130004883e+00 2.608131027221679688e+01
-3.183210945129394531e+01 -2.070271015167236328e+00 6.915357112884521484e+00 -2.070271015167236328e+00 -9.331283569335937500e+00 -6.663690567016601562e+00 6.915357112884521484e+00 -6.663690567016601562e+00 -1.208247470855712891e+01
-3.194309473037719727e+00 2.613825559616088867e+00 2.009826421737670898e+00 2.613825559616088867e+00 -2.737434387207031250e+01 -3.082519149780273438e+01 2.009826421737670898e+00 -3.082519149780273438e+01 -2.767108201980590820e+00
-9.840872764587402344e+00 7.170428752899169922e+00 2.529654312133789062e+01 7.170428752899169922e+00 -2.598392868041992188e+01 6.138345241546630859e+00 2.529654312133789062e+01 6.138345241546630859e+00 -2.350486946105957031e+01
-1.183619308471679688e+01 -1.129495716094970703e+01 -8.389000892639160156e-01 -1.129495716094970703e+01 2.691332101821899414e+00 -1.455308532714843750e+01 -8.389000892639160156e-01 -1.455308532714843750e+01 1.305437803268432617e+00
-8.837350845336914062e+00 -9.041406631469726562e+00 5.728393077850341797e+00 -9.041406631469726562e+00 -1.288840484619140625e+01 1.132540130615234375e+01 5.728393077850341797e+00 1.132540130615234375e+01 -1.811665534973144531e+01
-2.142275619506835938e+01 2.807313442230224609e+00 -5.428208827972412109e+00 2.807313442230224609e+00 1.083237552642822266e+01 1.262974548339843750e+01 -5.428208827972412109e+00 1.262974548339843750e+01 -6.911445617675781250e+00
1.589403033256530762e+00 3.933036029338836670e-01 -1.001925659179687500e+01 3.933036029338836670e-01 -1.474163055419921875e+01 -5.504473447799682617e-01 -1.001925659179687500e+01 -5.504473447799682617e-01 -3.235828399658203125e+01
-1.364307880401611328e+01 -4.832296371459960938e+00 -3.977013111114501953e+00 -4.832296371459960938e+00 -3.306944274902343750e+01 -2.830937147140502930e+00 -3.977013111114501953e+00 -2.830937147140502930e+00 -2.014066123962402344e+01
-7.759174823760986328e+00 -1.128608608245849609e+01 -4.316462993621826172e+00 -1.128608608245849609e+01 5.533664226531982422e+00 -6.073610305786132812e+00 -4.316462993621826172e+00 -6.073610305786132812e+00 -9.598821640014648438e+00