1.827099990844726562e+01 0.000000000000000000e+00 0.000000000000000000e+00 -3.740000128746032715e-01 1.884499931335449219e+01 0.000000000000000000e+00 -4.510000050067901611e-01 -5.700000002980232239e-02 1.861100006103515625e+01
1.804299926757812500e+01 0.000000000000000000e+00 0.000000000000000000e+00 -3.689999878406524658e-01 1.861000061035156250e+01 0.000000000000000000e+00 -4.449999928474426270e-01 -5.600000172853469849e-02 1.837899971008300781e+01
1.811300086975097656e+01 0.000000000000000000e+00 0.000000000000000000e+00 -4.839999973773956299e-01 1.860099983215332031e+01 0.000000000000000000e+00 2.000000094994902611e-03 -2.860000133514404297e-01 1.890200042724609375e+01
1.806399917602539062e+01 0.000000000000000000e+00 0.000000000000000000e+00 -4.830000102519989014e-01 1.855200004577636719e+01 0.000000000000000000e+00 2.000000094994902611e-03 -2.849999964237213135e-01 1.885099983215332031e+01
1.774300003051757812e+01 0.000000000000000000e+00 0.000000000000000000e+00 -4.740000069141387939e-01 1.822200012207031250e+01 0.000000000000000000e+00 2.000000094994902611e-03 -2.800000011920928955e-01 1.851600074768066406e+01
1.836300086975097656e+01 0.000000000000000000e+00 0.000000000000000000e+00 3.500000014901161194e-02 1.839900016784667969e+01 0.000000000000000000e+00 4.600000008940696716e-02 2.259999960660934448e-01 1.827700042724609375e+01
1.820599937438964844e+01 0.000000000000000000e+00 0.000000000000000000e+00 1.159999966621398926e-01 1.805500030517578125e+01 0.000000000000000000e+00 2.930000126361846924e-01 -9.300000220537185669e-02 1.876700019836425781e+01
1.817000007629394531e+01 0.000000000000000000e+00 0.000000000000000000e+00 1.159999966621398926e-01 1.802000045776367188e+01 0.000000000000000000e+00 2.930000126361846924e-01 -9.200000017881393433e-02 1.872999954223632812e+01
1.856200027465820312e+01 0.000000000000000000e+00 0.000000000000000000e+00 0.000000000000000000e+00 1.856200027465820312e+01 0.000000000000000000e+00 0.000000000000000000e+00 0.000000000000000000e+00 1.856200027465820312e+01
1.852300071716308594e+01 0.000000000000000000e+00 0.000000000000000000e+00 0.000000000000000000e+00 1.852300071716308594e+01 0.000000000000000000e+00 0.000000000000000000e+00 0.000000000000000000e+00 1.852300071716308594e+01
1.852400016784667969e+01 0.000000000000000000e+00 0.000000000000000000e+00 3.039999902248382568e-01 1.853899955749511719e+01 0.000000000000000000e+00 -1.220000013709068298e-01 5.210000276565551758e-01 1.847200012207031250e+01
1.857799911499023438e+01 0.000000000000000000e+00 0.000000000000000000e+00 3.050000071525573730e-01 1.859399986267089844e+01 0.000000000000000000e+00 -1.230000033974647522e-01 5.220000147819519043e-01 1.852599906921386719e+01
1.869700050354003906e+01 0.000000000000000000e+00 0.000000000000000000e+00 2.319999933242797852e-01 1.841300010681152344e+01 0.000000000000000000e+00 8.200000226497650146e-02 -4.650000035762786865e-01 1.798200035095214844e+01
1.810799980163574219e+01 0.000000000000000000e+00 0.000000000000000000e+00 -4.860000014305114746e-01 1.855100059509277344e+01 0.000000000000000000e+00 -3.339999914169311523e-01 -3.750000000000000000e-01 1.838999938964843750e+01
1.790500068664550781e+01 0.000000000000000000e+00 0.000000000000000000e+00 -4.799999892711639404e-01 1.834300041198730469e+01 0.000000000000000000e+00 -3.310000002384185791e-01 -3.700000047683715820e-01 1.818300056457519531e+01
1.832600021362304688e+01 0.000000000000000000e+00 0.000000000000000000e+00 -4.909999966621398926e-01 1.877400016784667969e+01 0.000000000000000000e+00 -3.379999995231628418e-01 -3.790000081062316895e-01 1.861100006103515625e+01
1.811400032043457031e+01 0.000000000000000000e+00 0.000000000000000000e+00 1.319999992847442627e-01 1.850099945068359375e+01 0.000000000000000000e+00 -4.850000143051147461e-01 4.930000007152557373e-01 1.788299942016601562e+01
1.853899955749511719e+01 0.000000000000000000e+00 0.000000000000000000e+00 1.350000053644180298e-01 1.893600082397460938e+01 0.000000000000000000e+00 -4.970000088214874268e-01 5.049999952316284180e-01 1.830400085449218750e+01
1.825499916076660156e+01 0.000000000000000000e+00 0.000000000000000000e+00 1.330000013113021851e-01 1.864599990844726562e+01 0.000000000000000000e+00 -4.889999926090240479e-01 4.970000088214874268e-01 1.802300071716308594e+01
1.826700019836425781e+01 0.000000000000000000e+00 0.000000000000000000e+00 -4.740000069141387939e-01 1.896500015258789062e+01 0.000000000000000000e+00 -5.130000114440917969e-01 -2.649999856948852539e-01 1.827199935913085938e+01
1.835400009155273438e+01 0.000000000000000000e+00 0.000000000000000000e+00 1.879999935626983643e-01 1.798600006103515625e+01 0.000000000000000000e+00 -3.910000026226043701e-01 -4.860000014305114746e-01 1.843300056457519531e+01
1.885199928283691406e+01 0.000000000000000000e+00 0.000000000000000000e+00 1.930000036954879761e-01 1.847400093078613281e+01 0.000000000000000000e+00 -4.009999930858612061e-01 -4.990000128746032715e-01 1.893300056457519531e+01
1.863400077819824219e+01 0.000000000000000000e+00 0.000000000000000000e+00 1.909999996423721313e-01 1.826000022888183594e+01 0.000000000000000000e+00 -3.970000147819519043e-01 -4.930000007152557373e-01 1.871400070190429688e+01
