5.800201892852783203e+00 6.384926795959472656e+00 8.103678703308105469e+00 1.668608283996582031e+01 1.690500640869140625e+01 5.175309181213378906e+00 4.934412002563476562e+00 1.324150657653808594e+01 3.436888933181762695e+00 6.915482044219970703e+00 8.850067138671875000e+00 1.801496887207031250e+01 7.274082183837890625e+00 1.553160667419433594e+01 1.760936927795410156e+01 4.413822174072265625e+00 7.635996818542480469e+00 1.632336807250976562e+01 4.150852203369140625e+00 3.962197065353393555e+00 1.152286911010742188e+01 2.550672054290771484e+00 1.743630021810531616e-01 1.141846942901611328e+01 2.995671987533569336e+00 2.651206970214843750e+00 5.541348934173583984e+00 1.282575011253356934e+00 1.385280704498291016e+01 3.205288887023925781e+00 1.524258232116699219e+01 3.076416969299316406e+00 7.522839903831481934e-01 1.319759935140609741e-01 1.572780704498291016e+01 1.036610889434814453e+01 4.219711780548095703e+00 1.085000705718994141e+01 1.509096908569335938e+01 1.169748210906982422e+01 2.057347059249877930e+00 3.918409109115600586e+00 1.174718189239501953e+01 3.536006927490234375e+00 1.637326812744140625e+01 9.660322189331054688e+00 4.836556911468505859e+00 1.250536918640136719e+01 9.846982002258300781e+00 8.299467086791992188e+00 2.881149053573608398e+00 1.736080050468444824e-01 5.013156890869140625e+00 1.629146957397460938e+01 1.617318153381347656e+01 1.228280735015869141e+01 1.589546871185302734e+01 6.631792068481445312e+00 7.680216789245605469e+00 1.345836925506591797e+01 1.064178180694580078e+01 1.849170684814453125e+01 1.271946907043457031e+01 1.607568168640136719e+01 8.537866592407226562e+00 9.521128654479980469e+00 6.616201877593994141e+00 1.855180740356445312e+01 1.516296863555908203e+01 2.843840122222900391e-01 1.373730659484863281e+01 1.608296966552734375e+01 2.343811988830566406e+00 6.352887153625488281e+00 8.308049201965332031e+00 1.836961984634399414e+00 5.510917186737060547e+00 3.341898918151855469e+00 5.414581775665283203e+00 7.435926914215087891e+00 3.088339090347290039e+00 1.029404997825622559e+00 1.753000640869140625e+01 7.610828876495361328e+00 1.293628215789794922e+01 7.325726985931396484e+00 8.602608680725097656e+00 4.036362171173095703e+00 1.552990722656250000e+01 7.037738800048828125e+00 6.276360154151916504e-01 1.246010684967041016e+01 5.665869235992431641e+00 2.900801897048950195e+00 9.594596862792968750e+00 6.761078834533691406e+00 2.684762001037597656e+00 1.421840667724609375e+01 1.308656883239746094e+01 7.889532089233398438e+00 1.209550666809082031e+01 1.233186912536621094e+01 5.995992183685302734e+00 1.598180675506591797e+01 1.183366870880126953e+01 7.492422103881835938e+00 1.695350646972656250e+01 5.512059211730957031e+00 1.473068237304687500e+01 1.576790714263916016e+01 1.384396934509277344e+01 1.607308197021484375e+01 1.225510692596435547e+01 1.173106861114501953e+01 1.748018264770507812e+01 2.333806991577148438e+00 3.400018930435180664e+00 6.119051933288574219e+00 1.221670985221862793e+00 2.759608983993530273e+00 8.288982391357421875e+00 1.163150691986083984e+01 1.819666862487792969e+01 -2.125000115483999252e-03 9.682046890258789062e+00 1.717416954040527344e+01 9.512062072753906250e+00 2.501697063446044922e+00 6.824799776077270508e-01 7.087341785430908203e+00 2.821166992187500000e+00 1.297786903381347656e+01 3.482641935348510742e+00 1.726890754699707031e+01 3.314469099044799805e+00 1.516768169403076172e+01 1.796000671386718750e+01 9.296058654785156250e+00 6.788129806518554688e-01 9.896487236022949219e+00 1.033230876922607422e+01 2.248051881790161133e+00 1.755970764160156250e+01 2.186779975891113281e-01 1.291768169403076172e+01 1.556560707092285156e+01 1.830916976928710938e+01 9.792482376098632812e+00 1.353560733795166016e+01 2.818538904190063477e+00 1.413833975791931152e+00 5.924777030944824219e+00 1.302566909790039062e+01 3.174711942672729492e+00 2.814367055892944336e+00 7.952380180358886719e-01 1.352088165283203125e+01 1.764227032661437988e+00 8.155268669128417969e+00 1.110198211669921875e+01 5.171866893768310547e+00 6.060588836669921875e+00 1.440778160095214844e+01 6.310480237007141113e-01 3.831048965454101562e+00 1.638668251037597656e+01 2.137816905975341797e+00 1.302776908874511719e+01 1.255098247528076172e+01 1.527250671386718750e+01 1.107956886291503906e+01 2.575311899185180664e+00 1.383900737762451172e+01 9.058678627014160156e+00 6.391181945800781250e+00 6.554899811744689941e-01 8.874798774719238281e+00 1.718008232116699219e+01 8.717597007751464844e+00 1.398856925964355469e+01 1.493838214874267578e+01 1.854170608520507812e+01 1.708296966552734375e+01 1.650878143310546875e+01 7.124146938323974609e+00 2.425660043954849243e-01 7.444851875305175781e+00 2.814806938171386719e+00 5.678938865661621094e+00 6.435411930084228516e+00 4.486866950988769531e+00 4.904049932956695557e-01 1.033451175689697266e+01 1.476030731201171875e+01 1.506876945495605469e+01 1.362488174438476562e+01 1.002492713928222656e+01 1.452196884155273438e+01 1.324478244781494141e+01 1.416660690307617188e+01 4.479979038238525391e+00 9.155252456665039062e+00 7.225666999816894531e+00 1.609416961669921875e+01 6.801432132720947266e+00 1.140450668334960938e+01 5.782429218292236328e+00 8.000899851322174072e-02 8.027896881103515625e+00 4.880959033966064453e+00 1.501778221130371094e+01 1.472540664672851562e+01 7.526298999786376953e+00 1.029575157165527344e+01 3.061506986618041992e+00 9.738879203796386719e+00 1.584058189392089844e+01 1.092880725860595703e+01 2.556458950042724609e+00 1.532428169250488281e+01 5.733946800231933594e+00 5.152348995208740234e+00 1.281488227844238281e+01 4.570277214050292969e+00 2.435448884963989258e+00 1.054208183288574219e+01 1.690270614624023438e+01 2.056389093399047852e+00 8.851881980895996094e+00 1.360620689392089844e+01 7.902839183807373047e+00 1.766318130493164062e+01 2.531737089157104492e+00 9.197729110717773438e+00 5.797852039337158203e+00 1.224570655822753906e+01 9.028848648071289062e+00 1.363238239288330078e+01 5.649497032165527344e+00 1.256596946716308594e+01 7.474031925201416016e+00 8.480566978454589844e+00 1.021069908142089844e+01 2.432821989059448242e+00 2.159746885299682617e+00 1.520946884155273438e+01 1.098228168487548828e+01 1.804300689697265625e+01 7.119789123535156250e+00 4.003312110900878906e+00 1.689060783386230469e+01 1.540606880187988281e+01 1.301748180389404297e+01 7.918537139892578125e+00 1.829336929321289062e+01 4.785222053527832031e+00 1.167020702362060547e+01 6.510400176048278809e-01 1.457228183746337891e+01 1.016558742523193359e+01 5.672729015350341797e+00 1.113468170166015625e+01 1.209100723266601562e+01 1.086026859283447266e+01 1.028922176361083984e+01 9.933206558227539062e+00 7.107638835906982422e+00 1.787898254394531250e+01 1.556510734558105469e+01 6.820369958877563477e-01 1.210458183288574219e+01 1.177840709686279297e+01 1.836156845092773438e+01 5.055531978607177734e+00 4.403326988220214844e+00 3.317439079284667969e+00 3.500921964645385742e+00 6.328136920928955078e+00 5.809188842773437500e+00 6.500942230224609375e+00 5.821187019348144531e+00 1.130566883087158203e+01 6.895641803741455078e+00 4.173027038574218750e+00 9.968969345092773438e+00 1.861861944198608398e+00 7.858026981353759766e+00 1.533986854553222656e+01 5.430702209472656250e+00 2.066517114639282227e+00 1.687206840515136719e+01 4.636072158813476562e+00 8.259200304746627808e-02 1.745416831970214844e+01 1.807788276672363281e+01 4.215187072753906250e+00 5.158820152282714844e-01 7.139291763305664062e+00 1.029511737823486328e+01 2.455638885498046875e+00 4.800171852111816406e+00 1.840100669860839844e+01 6.005649089813232422e+00 2.954511880874633789e+00 1.494870662689208984e+01 1.014024972915649414e+00 3.603621959686279297e+00 1.267040729522705078e+01 6.489738941192626953e+00 8.328421592712402344e+00 1.085950660705566406e+01 8.932969093322753906e+00 1.103355050086975098e+00 1.105640697479248047e+01 1.390496921539306641e+01 7.623301982879638672e+00 1.671430778503417969e+01 1.359516906738281250e+01 2.888171911239624023e+00 1.626960754394531250e+01 1.052826881408691406e+01 6.879732131958007812e+00 1.001404666900634766e+01 1.548036861419677734e+01 1.036465167999267578e+01 5.955486774444580078e+00 1.855856895446777344e+01 1.689958190917968750e+01 5.396487236022949219e+00 2.226269006729125977e+00 1.085718154907226562e+01 2.028256893157958984e+00 6.760058879852294922e+00 1.713928222656250000e+01 7.284510135650634766e-01 6.736568927764892578e+00 1.761188125610351562e+01 9.418956756591796875e+00 7.106598854064941406e+00 1.277400016784667969e+00 2.970706939697265625e+00 1.209036922454833984e+01 1.341208171844482422e+01 1.464861989021301270e+00 1.214696884155273438e+01 1.488958168029785156e+01 9.147236824035644531e+00 1.193856906890869141e+01 1.235168170928955078e+01 3.252146959304809570e+00 1.286706924438476562e+01 1.612218284606933594e+01 1.368990707397460938e+01 4.339108943939208984e+00 1.057458209991455078e+01 1.444210720062255859e+01 1.840886878967285156e+01 1.338298225402832031e+01 8.873770236968994141e-01 1.189303040504455566e+00 1.034530162811279297e+01 1.524840736389160156e+01 5.382658958435058594e+00 1.245728206634521484e+01 7.701447010040283203e+00 5.832569122314453125e+00 1.006601238250732422e+01 1.468350696563720703e+01 1.199796867370605469e+01 1.523408222198486328e+01 1.512810707092285156e+01 1.038279914855957031e+01 1.591788196563720703e+01 1.555760669708251953e+01 1.649436950683593750e+01 1.499808216094970703e+01 1.034241676330566406e+01 1.798566818237304688e+01 2.613702058792114258e+00 7.489407062530517578e+00 4.255148887634277344e+00 5.014122009277343750e+00 5.747587203979492188e+00 1.699969053268432617e+00 6.760481834411621094e+00 3.407727003097534180e+00 3.089349031448364258e+00 3.176971912384033203e+00 3.541917085647583008e+00 3.242769002914428711e+00 1.748338127136230469e+01 4.648917198181152344e+00 4.074439048767089844e+00 5.314452171325683594e+00 5.478756904602050781e+00 4.953808784484863281e+00 7.272031784057617188e+00 9.299886703491210938e+00 4.276528835296630859e+00 1.789458274841308594e+01 2.272227048873901367e+00 1.017055034637451172e+00 1.677978134155273438e+01 5.198910236358642578e-01 4.782999038696289062e+00 5.592611789703369141e+00 1.746060752868652344e+01 1.719126892089843750e+01 2.224652051925659180e+00 4.813726902008056641e+00 6.349638938903808594e+00 4.062662124633789062e+00 7.527856826782226562e+00 7.326599121093750000e+00 4.198701858520507812e+00 1.784120750427246094e+01 1.038830852508544922e+01 8.330299854278564453e-01 8.387577056884765625e+00 8.425349235534667969e+00 7.635821819305419922e+00 5.082016944885253906e+00 8.269728660583496094e+00 5.098132133483886719e+00 1.608317017555236816e+00 6.280768871307373047e+00 1.586648178100585938e+01 2.020926952362060547e+00 7.880438804626464844e+00 1.611202001571655273e+00 8.987136840820312500e+00 1.331736946105957031e+01 5.345732212066650391e+00 7.213437080383300781e+00 1.039121913909912109e+01 5.665741920471191406e+00 4.926156997680664062e+00 1.298266887664794922e+01 8.329591751098632812e+00 3.351366996765136719e+00 1.114516925811767578e+01 8.311712265014648438e+00 6.844817161560058594e+00 1.178076934814453125e+01 1.528741955757141113e+00 1.638680648803710938e+01 1.196176910400390625e+01 5.193012237548828125e+00 3.107767105102539062e+00 9.408279418945312500e+00 1.224498176574707031e+01 6.924510002136230469e-01 1.069786930084228516e+01 3.976242065429687500e+00 3.398847103118896484e+00 1.730656814575195312e+01 7.242581844329833984e+00 2.207667112350463867e+00 1.796836853027343750e+01 5.867382049560546875e+00 1.775267004966735840e+00 1.484296894073486328e+01 6.825582027435302734e+00 7.884037017822265625e+00 1.572576904296875000e+01 4.353141784667968750e+00 3.141050040721893311e-01 8.549119830131530762e-01 1.726062059402465820e+00 4.693807125091552734e+00 2.339030057191848755e-01 6.473600119352340698e-02 7.193296909332275391e+00 1.568456935882568359e+01 1.417685985565185547e+00 1.602890777587890625e+01 2.080779075622558594e+00 2.829652070999145508e+00 1.296230697631835938e+01 1.357087016105651855e+00 7.096251964569091797e+00 1.230960655212402344e+01 2.663368940353393555e+00 5.755881786346435547e+00 1.819190788269042969e+01 4.197638988494873047e+00 5.486172199249267578e+00 9.470887184143066406e+00 1.460482001304626465e+00 2.576662063598632812e+00 1.414110660552978516e+01 5.393929004669189453e+00 2.840941905975341797e+00 1.772330665588378906e+01 5.743618965148925781e+00 4.807621955871582031e+00 1.558560657501220703e+01 1.676208972930908203e+00 7.228860259056091309e-01 1.184710693359375000e+01 1.211566925048828125e+01 8.667801856994628906e+00 1.159150695800781250e+01 7.045079231262207031e+00 5.937441825866699219e+00 1.726680755615234375e+01 7.337328910827636719e+00 6.426412105560302734e+00 9.840296745300292969e+00 9.080589294433593750e+00 5.438412189483642578e+00 1.368360710144042969e+01 7.055509090423583984e+00 2.417671918869018555e+00 1.186770725250244141e+01 7.947319030761718750e+00 6.815980076789855957e-01 1.555626988410949707e+00 7.197238922119140625e+00 4.181302070617675781e+00 1.119140720367431641e+01 5.320848941802978516e+00 2.201541900634765625e+00 1.243000698089599609e+01 1.486356925964355469e+01 8.149082183837890625e+00 1.614640617370605469e+01 1.161636924743652344e+01 7.838041782379150391e+00 1.272190666198730469e+01 1.001865863800048828e+01 1.668868255615234375e+01 1.458100700378417969e+01 1.490016937255859375e+01 1.966102004051208496e+00 1.594280719757080078e+01 8.769358634948730469e+00 3.884681940078735352e+00 1.446510696411132812e+01 1.096686935424804688e+01 5.612252235412597656e+00 1.720520782470703125e+01 1.369086933135986328e+01 2.934544086456298828e+00 -2.044400013983249664e-02 1.631026840209960938e+01 8.955891609191894531e+00 1.394330692291259766e+01 2.357250005006790161e-01 5.859141826629638672e+00 1.071660709381103516e+01 1.699326896667480469e+01 2.201611995697021484e+00 1.529530715942382812e+01 1.766296958923339844e+01 3.195951938629150391e+00 6.451517105102539062e+00 1.482256889343261719e+01 8.573032379150390625e+00 1.854600715637207031e+01 1.389376926422119141e+01 1.694958114624023438e+01 1.716880607604980469e+01 1.723226928710937500e+01 6.009312152862548828e+00 1.032349681854248047e+01 1.371816921234130859e+01 1.789438247680664062e+01 7.191707134246826172e+00 1.963119029998779297e+00 1.165608215332031250e+01 6.881506919860839844e+00 1.685629010200500488e+00 1.492298221588134766e+01 5.337166786193847656e+00 1.676599025726318359e+00 1.137758159637451172e+01 7.049369812011718750e-01 1.375931978225708008e+00 1.136288356781005859e+01 4.076313018798828125e+00 6.295400112867355347e-02 1.000218200683593750e+01 2.944267034530639648e+00 5.183959007263183594e+00 1.682438278198242188e+01 1.755180740356445312e+01 7.499878883361816406e+00 1.623998260498046875e+01 8.120257377624511719e+00 6.516239166259765625e+00 1.262608242034912109e+01 9.966070055961608887e-01 6.062728881835937500e+00 9.518301963806152344e+00 8.181319832801818848e-01 7.675368785858154297e+00 1.038775157928466797e+01 7.297047138214111328e+00 5.466438770294189453e+00 1.181098175048828125e+01 3.400947093963623047e+00 7.921638965606689453e+00 1.365028190612792969e+01 3.366259932518005371e-01 1.361856937408447266e+01 1.373288154602050781e+01 1.093870735168457031e+01 1.172366905212402344e+01 1.747262001037597656e+00 4.596847057342529297e+00 1.098126888275146484e+01 1.508748245239257812e+01 2.135957002639770508e+00 1.115706920623779297e+01 1.413688182830810547e+01 7.627117156982421875e+00 1.064716911315917969e+01 -2.076499909162521362e-02 3.600106954574584961e+00 1.370456886291503906e+01 1.686788177490234375e+01 1.087100696563720703e+01 8.233549118041992188e+00 1.484908199310302734e+01 8.071046829223632812e+00 1.385986900329589844e+01 8.738251686096191406e+00 6.242557048797607422e+00 8.987099677324295044e-02 1.083298206329345703e+01 2.545676946640014648e+00 1.392196941375732422e+01 1.133388233184814453e+01 6.588246822357177734e+00 1.676536941528320312e+01 1.652298164367675781e+01 4.686847209930419922e+00 1.747366905212402344e+01 1.373048210144042969e+01 3.917196989059448242e+00 1.406076908111572266e+01 3.068622112274169922e+00 2.227756977081298828e+00 1.305636882781982422e+01 1.163828182220458984e+01 4.459476947784423828e+00 1.142326927185058594e+01 1.361418247222900391e+01 1.306648969650268555e+00 1.795196914672851562e+01 2.440681934356689453e+00 9.284676551818847656e+00 1.667366981506347656e+01 1.521448230743408203e+01 1.541000747680664062e+01 3.672658920288085938e+00 1.464538192749023438e+01 1.229830741882324219e+01 4.445768833160400391e+00 1.200468158721923828e+01 1.389910697937011719e+01 1.443300962448120117e+00 1.404798221588134766e+01 1.812890625000000000e+01 1.984619021415710449e+00 8.652432441711425781e+00 1.001305675506591797e+01 9.952120184898376465e-01 1.404958152770996094e+01 1.005688667297363281e+01 9.413030147552490234e-01 1.063928222656250000e+01 1.640840721130371094e+01 1.836836814880371094e+01 1.352248191833496094e+01 2.392467021942138672e+00 2.750889062881469727e+00 1.707888221740722656e+01 1.405060672760009766e+01 6.060359001159667969e+00 1.740468215942382812e+01 1.302060699462890625e+01 2.851208925247192383e+00 1.202638244628906250e+01 1.620910644531250000e+01 5.849019050598144531e+00 1.328908157348632812e+01 6.003236770629882812e+00 6.795138835906982422e+00 1.062808227539062500e+01 1.312590694427490234e+01 5.353969097137451172e+00 5.009959936141967773e-01 1.014301681518554688e+01 5.577569007873535156e+00 1.356408214569091797e+01 8.130447387695312500e+00 4.258378982543945312e+00 1.665648269653320312e+01 1.391830730438232422e+01 9.750199317932128906e+00 1.248268222808837891e+01 9.357807159423828125e+00 7.048159122467041016e+00 9.212291717529296875e+00 1.581560707092285156e+01 3.810678958892822266e+00 9.098181724548339844e+00 1.563320732116699219e+01 7.022579193115234375e+00 1.023271179199218750e+01 1.300500679016113281e+01 1.317856884002685547e+01 1.433108234405517578e+01 1.415670680999755859e+01 1.199536895751953125e+01 1.680838203430175781e+01 9.451757431030273438e+00 1.151116943359375000e+01 9.936692237854003906e+00 9.904876708984375000e+00 9.445368766784667969e+00 1.100998210906982422e+01 1.612930679321289062e+01 1.306116867065429688e+01 1.060538196563720703e+01 1.423510742187500000e+01 1.010773944854736328e+01 -4.304710030555725098e-01 1.081900691986083984e+01 1.515426921844482422e+01 1.374098205566406250e+01 1.567440700531005859e+01 9.082928657531738281e+00 7.451220154762268066e-01 1.605707049369812012e+00 1.079476928710937500e+01 1.612888145446777344e+01 1.690450668334960938e+01 1.119046878814697266e+01 1.102098178863525391e+01 1.343940734863281250e+01 1.674696922302246094e+01 1.563068199157714844e+01 1.427160739898681641e+01 1.797866821289062500e+01 1.732928276062011719e+01 1.092170715332031250e+01 1.802610009908676147e-01 1.398048210144042969e+01 1.154070663452148438e+01 1.656926918029785156e+01 1.506718158721923828e+01 8.489867210388183594e+00 1.710346984863281250e+01 8.947392463684082031e+00 1.037228679656982422e+01 1.572966861724853516e+01 1.407148170471191406e+01 1.612280654907226562e+01 1.591076946258544922e+01 7.904252052307128906e+00 1.529970741271972656e+01 1.508366870880126953e+01