-6.085471875000000000e+04
-6.084694921875000000e+04
-6.085419531250000000e+04
-6.085299609375000000e+04
-6.084989453125000000e+04
-6.085763671875000000e+04
-6.085332031250000000e+04
-6.085219531250000000e+04
-6.085064453125000000e+04
-6.085282031250000000e+04
-6.085257031250000000e+04
-6.084416015625000000e+04
-6.085802734375000000e+04
-6.086758203125000000e+04
-6.085848828125000000e+04
-6.084707812500000000e+04
-6.085671484375000000e+04
-6.084597656250000000e+04
-6.084791796875000000e+04
-6.085360937500000000e+04
-6.086717968750000000e+04
-6.084608984375000000e+04
-6.084755859375000000e+04
