3.205775022506713867e-01 -2.953992225229740143e-02 4.370942413806915283e-01 -3.163593411445617676e-01 -4.261434376239776611e-01 -2.202736288309097290e-01 -2.655589878559112549e-01 1.020604595541954041e-01 -8.154974132776260376e-02 2.386086806654930115e-02 -4.887703657150268555e-01 6.293011903762817383e-01 1.995443552732467651e-01 -5.135675892233848572e-02 9.130502492189407349e-02 4.350857138633728027e-01 2.151293754577636719e-01 3.373457193374633789e-01 -6.362689137458801270e-01 -3.899638950824737549e-01 -8.951605111360549927e-02 3.194122612476348877e-01 1.039759367704391479e-01 3.420853316783905029e-01 -5.251530557870864868e-02 -4.271939992904663086e-01 1.874072104692459106e-01 1.730491518974304199e-01 -8.878792077302932739e-02 -3.613634034991264343e-02 9.224192798137664795e-02 -1.491440534591674805e-01 -2.411628216505050659e-01 -1.336480140686035156e+00 -1.340264827013015747e-01 -2.877239584922790527e-01 -4.822711348533630371e-01 1.912479251623153687e-01 3.807223141193389893e-01 -4.349247515201568604e-01 -7.980329990386962891e-01 3.889667987823486328e-02 4.137471318244934082e-02 3.062492795288562775e-02 -2.612606287002563477e-01 -5.847974866628646851e-02 4.927056655287742615e-02 2.006165087223052979e-01 7.091257721185684204e-02 -1.613886654376983643e-01 -8.688530325889587402e-02 4.318198859691619873e-01 -4.727087020874023438e-01 1.990152299404144287e-01 -6.241620779037475586e-01 7.051867842674255371e-01 2.403025329113006592e-01 -1.649959385395050049e-01 1.014248933643102646e-02 -3.185427486896514893e-01 3.268936872482299805e-01 4.124831855297088623e-01 -2.429528087377548218e-01 3.902575001120567322e-02 -8.019785583019256592e-02 -7.112150192260742188e-01 1.777049005031585693e-01 7.276850342750549316e-01 7.333300709724426270e-01 4.505123198032379150e-01 1.462129950523376465e-01 3.569524586200714111e-01 -7.445668578147888184e-01 -1.845903247594833374e-01 3.321685791015625000e-01 -4.796789884567260742e-01 -1.568270288407802582e-02 -3.807917237281799316e-01 1.626598238945007324e-01 1.126086235046386719e+00 2.596135735511779785e-01 -3.030765354633331299e-01 1.203289747238159180e+00 -6.398159861564636230e-01 -7.740564178675413132e-03 6.252903342247009277e-01 3.422812223434448242e-01 -1.033089905977249146e-01 6.817907691001892090e-01 -2.702744007110595703e-01 -2.130118012428283691e-01 2.845368087291717529e-01 3.230509161949157715e-01 -5.178551673889160156e-01 3.171949684619903564e-01 -1.121134757995605469e-01 -3.135558664798736572e-01 -2.208614051342010498e-01 -4.463985860347747803e-01 9.697019308805465698e-02 -9.691929072141647339e-02 3.413288891315460205e-01 -1.665377259254455566e+00 -4.530248343944549561e-01 -9.577842950820922852e-01 3.251669406890869141e-01 -3.283226788043975830e-01 6.171676795929670334e-03 2.383412867784500122e-01 -7.107249647378921509e-02 -1.008374929428100586e+00 -2.218615412712097168e-01 -2.463785372674465179e-02 -2.363132089376449585e-01 1.618663966655731201e-02 5.575951933860778809e-02 3.018218092620372772e-02 -4.584302902221679688e-01 -4.795452058315277100e-01 -3.002946078777313232e-01 2.920876257121562958e-02 6.312239170074462891e-01 -7.483124732971191406e-01 -7.626355439424514771e-02 -2.232864499092102051e-01 3.144238293170928955e-01 8.353046774864196777e-01 1.814263164997100830e-01 -4.204731062054634094e-02 -2.566316127777099609e-01 -5.914308875799179077e-02 5.823076367378234863e-01 2.761375308036804199e-01 -3.680914938449859619e-01 1.277684140950441360e-02 -5.867874994874000549e-02 1.831792891025543213e-01 2.037496566772460938e-01 -7.207574695348739624e-02 2.247926145792007446e-01 -4.166066944599151611e-01 -1.234983131289482117e-01 5.412789806723594666e-02 -4.350646734237670898e-01 7.132179141044616699e-01 8.458056300878524780e-02 -1.093901600688695908e-02 -1.673870682716369629e-01 -5.849209055304527283e-02 -1.238654740154743195e-02 -8.272731304168701172e-02 -5.068693757057189941e-01 -8.774610608816146851e-02 2.645048312842845917e-02 -3.091314733028411865e-01 -9.761965274810791016e-02 6.551274657249450684e-02 1.181782037019729614e-02 3.385094106197357178e-01 -9.285591542720794678e-02 -4.402932524681091309e-01 2.911712825298309326e-01 2.517259418964385986e-01 -3.569966554641723633e-01 7.423804402351379395e-01 -8.137851208448410034e-02 1.371735036373138428e-01 1.424134075641632080e-01 -2.039897888898849487e-01 3.455830514430999756e-01 5.629636347293853760e-02 7.670989632606506348e-02 -6.334704756736755371e-01 3.096390366554260254e-01 -3.102195560932159424e-01 1.180290710180997849e-02 -3.675011694431304932e-01 -2.535580992698669434e-01 -4.229670763015747070e-02 -3.445227071642875671e-02 -1.235893443226814270e-01 -3.475555777549743652e-01 7.997571676969528198e-02 -5.443848371505737305e-01 2.232967317104339600e-01 -1.002149820327758789e+00 -3.944380953907966614e-02 -1.900215148925781250e-01 1.327738314867019653e-01 7.429326772689819336e-01 -4.372999668121337891e-01 -5.055457949638366699e-01 -1.930245608091354370e-01 3.229259550571441650e-01 -3.008947074413299561e-01 1.311864405870437622e-01 9.467934072017669678e-02 2.033789157867431641e-01 -5.551279187202453613e-01 3.165701925754547119e-01 -1.866878196597099304e-02 -7.311651855707168579e-02 2.619368135929107666e-01 3.567771017551422119e-01 -6.637411117553710938e-01 -1.536146849393844604e-01 -5.527260303497314453e-01 -3.936102241277694702e-02 -5.181143879890441895e-01 -4.564747512340545654e-01 6.689995527267456055e-01 -4.597909152507781982e-01 -5.855986475944519043e-01 3.770261108875274658e-01 -3.047199845314025879e-01 1.085283309221267700e-01 2.730511873960494995e-02 3.862763941287994385e-01 -2.158472090959548950e-01 -1.196534857153892517e-01 2.758295536041259766e-01 1.084686815738677979e-01 -6.221036911010742188e-01 5.597832202911376953e-01 -5.337600708007812500e-01 3.141276538372039795e-01 1.756665259599685669e-01 8.636901527643203735e-02 9.074349701404571533e-02 4.719702601432800293e-01 3.667730689048767090e-01 1.540857255458831787e-01 1.225223392248153687e-01 -2.793462872505187988e-01 -4.134354591369628906e-01 6.184841319918632507e-02 -9.975469857454299927e-02 2.357357293367385864e-01 7.050413489341735840e-01 -3.928872346878051758e-01 7.363347411155700684e-01 -1.182842850685119629e+00 7.491331696510314941e-01 9.990587830543518066e-02 4.902220144867897034e-02 4.540280699729919434e-01 -1.879553794860839844e-01 -4.409041702747344971e-01 -8.256944268941879272e-02 -1.444718390703201294e-01 1.230900362133979797e-01 4.621337354183197021e-01 -3.214095532894134521e-01 -8.949033915996551514e-02 1.769963055849075317e-01 1.010366454720497131e-01 5.129145458340644836e-02 2.354380041360855103e-01 -7.316023856401443481e-02 -2.980263829231262207e-01 2.798985242843627930e-01 1.498305350542068481e-01 -4.745110571384429932e-01 1.947106868028640747e-01 -1.636867411434650421e-02 -2.958224117755889893e-01 -4.865700304508209229e-01 -7.084628939628601074e-01 -1.879353225231170654e-01 -3.914828896522521973e-01 3.373364806175231934e-01 1.819467097520828247e-01 1.694130897521972656e-01 -1.805653572082519531e+00 9.974800795316696167e-02 -3.558642387390136719e+00 -2.272576332092285156e+00 2.323521524667739868e-01 -1.862323164939880371e+00 -1.589831560850143433e-01 1.206453323364257812e+00 1.178537845611572266e+00 -2.662104964256286621e-01 -1.618700027465820312e-01 -2.237724781036376953e+00 9.136739969253540039e-01 1.076500892639160156e+00 -7.345719337463378906e-01 2.157951831817626953e+00 1.415233016014099121e-01 -2.881893217563629150e-01 -1.489898920059204102e+00 3.675917088985443115e-01 1.378534197807312012e+00 -6.814380288124084473e-01 -1.164622455835342407e-01 -1.661961227655410767e-01 -2.391912937164306641e-01 -4.328498542308807373e-01 -3.538681566715240479e-01 -4.735643267631530762e-01 3.158718943595886230e-01 -3.768568933010101318e-01 1.429474830627441406e+00 3.640590012073516846e-01 5.479535460472106934e-02 7.280197739601135254e-01 1.074447154998779297e+00 -2.903526723384857178e-01 -3.107244253158569336e+00 1.665757894515991211e+00 -1.202433034777641296e-01 -5.437965989112854004e-01 -5.927524715662002563e-02 -1.432832717895507812e+00 8.671786785125732422e-01 9.259325265884399414e-01 1.858703136444091797e+00 2.425145626068115234e+00 1.431451588869094849e-01 3.775099515914916992e-01 3.514086484909057617e+00 -9.958957433700561523e-01 1.197254881262779236e-01 -5.416116714477539062e-01 7.880262136459350586e-01 7.206848859786987305e-01 1.391119122505187988e+00 1.665072292089462280e-01 -2.812488973140716553e-01 1.336385965347290039e+00 -5.519752502441406250e-01 4.613438844680786133e-01 2.919601202011108398e-01 7.173342704772949219e-01 2.135277271270751953e+00 1.660459756851196289e+00 5.573617219924926758e-01 1.518317818641662598e+00 1.236602544784545898e+00 5.840451717376708984e-01 2.035674333572387695e+00 2.755935192108154297e-01 1.502825975418090820e+00 -3.597607851028442383e+00 -2.541908740997314453e+00 -1.326218366622924805e+00 2.613104879856109619e-01 -5.152866840362548828e-01 -1.233207106590270996e+00 -2.338732331991195679e-01 5.429763793945312500e-01 5.866357684135437012e-01 -1.396039724349975586e+00 -2.808355093002319336e+00 -9.580235481262207031e-01 8.877706527709960938e-01 -2.815975435078144073e-02 -8.994763493537902832e-01 9.626828432083129883e-01 -6.016325354576110840e-01 -1.910742163658142090e+00 1.844048380851745605e+00 -9.144160151481628418e-01 1.389887183904647827e-02 -1.477613151073455811e-01 4.355150759220123291e-01 -9.035629034042358398e-02 4.464957416057586670e-01 2.230242043733596802e-01 1.764491200447082520e+00 2.447083711624145508e+00 -3.756824433803558350e-01 4.382615387439727783e-01 1.063597083091735840e+00 -4.749141633510589600e-01 -9.091334342956542969e-01 5.981039404869079590e-01 9.776455760002136230e-01 -5.984454751014709473e-01 1.049265146255493164e+00 -4.450240731239318848e-01 -4.393624961376190186e-01 3.882952332496643066e-01 8.081734776496887207e-01 -4.584534466266632080e-01 4.304731488227844238e-01 7.654570937156677246e-01 -8.052664995193481445e-01 3.372799456119537354e-01 -4.011790454387664795e-01 1.293192952871322632e-01 -1.224451959133148193e-01 1.375301241874694824e+00 1.280147671699523926e+00 2.750869750976562500e+00 3.837798833847045898e-01 -2.904884144663810730e-02 -8.940250873565673828e-01 -5.090723037719726562e-01 -6.473796963691711426e-01 2.731874585151672363e-01 -4.164282381534576416e-01 -3.132303357124328613e-01 -1.247362613677978516e+00 1.519522219896316528e-01 2.396268304437398911e-03 -2.360740751028060913e-01 4.168077111244201660e-01 6.931309103965759277e-01 4.537653028964996338e-01 4.569946229457855225e-01 9.156367927789688110e-02 -4.472773671150207520e-01 -8.038364648818969727e-01 -2.661673426628112793e-01 4.808575510978698730e-01 -3.814051747322082520e-01 1.598249226808547974e-01 -9.283689409494400024e-02 5.562788248062133789e-01 -5.771309733390808105e-01 3.723502755165100098e-01 4.653029143810272217e-01 1.289686113595962524e-01 7.925436496734619141e-01 7.813840359449386597e-02 -1.104738831520080566e+00 -8.922459483146667480e-01 7.223978042602539062e-01 7.931467890739440918e-01 1.018145680427551270e+00 -3.813681602478027344e-01 -5.522107481956481934e-01 4.217669069766998291e-01 5.692756772041320801e-01 4.947645962238311768e-01 -2.632712125778198242e-01 3.447386920452117920e-01 -1.351201772689819336e+00 -3.263033628463745117e-01 -5.884304046630859375e-01 -4.865977764129638672e-01 1.882047653198242188e-01 -4.552061557769775391e-01 7.930629849433898926e-01 1.606395602226257324e+00 9.819418787956237793e-01 3.451423645019531250e-01 9.979913830757141113e-01 -1.027567267417907715e+00 -5.613716244697570801e-01 -7.033042907714843750e-01 2.158662378787994385e-01 2.134689390659332275e-01 -2.164524346590042114e-01 -1.646623015403747559e+00 2.425877302885055542e-01 -5.849954485893249512e-01 -5.535945892333984375e-01 1.057397127151489258e-01 1.105727195739746094e+00 -5.466129779815673828e-01 -2.748267948627471924e-01 3.798805177211761475e-01 4.275107383728027344e-01 4.860085248947143555e-01 -4.316265583038330078e-01 2.879167795181274414e-01 6.912894845008850098e-01 -1.069846376776695251e-01 -1.616665720939636230e+00 8.655361831188201904e-03 1.311653554439544678e-01 7.727836966514587402e-01 6.074797362089157104e-02 7.505410909652709961e-02 -5.062369108200073242e-01 -8.864388465881347656e-01 5.712395310401916504e-01 -5.184013247489929199e-01 4.730948805809020996e-01 2.398052811622619629e-01 2.766980528831481934e-01 -5.661867856979370117e-01 -4.544847011566162109e-01 -1.965017169713973999e-01 8.306103944778442383e-02 1.268752068281173706e-01 1.491841673851013184e-01 -3.439252078533172607e-01 4.054557979106903076e-01 6.417329907417297363e-01 -2.059351094067096710e-02 -9.996244311332702637e-02 -8.377848267555236816e-01 -1.539386361837387085e-01 2.118177860975265503e-01 1.915368996560573578e-02 2.281093150377273560e-01 -8.052588105201721191e-01 2.833859920501708984e-01 -5.529888272285461426e-01 -2.081112712621688843e-01 -6.624438166618347168e-01 8.917414546012878418e-01 -9.171794354915618896e-02 6.026753783226013184e-01 1.641308188438415527e+00 -1.078042626380920410e+00 -1.021917343139648438e+00 -7.384851574897766113e-01 2.524077892303466797e-01 1.950104683637619019e-01 1.383829563856124878e-01 3.283530473709106445e-01 3.655085861682891846e-01 -1.883873045444488525e-01 -2.389274984598159790e-01 5.435338020324707031e-01 -1.077440977096557617e+00 -1.023288965225219727e+00 1.734423637390136719e+00 5.109034180641174316e-01 7.248809933662414551e-01 4.314008057117462158e-01 -8.261150717735290527e-01 -2.842612098902463913e-03 6.845357269048690796e-02 -1.028967380523681641e+00 -9.636907279491424561e-02 1.010331630706787109e+00 -4.866687357425689697e-01 -9.125900268554687500e-01 -3.372711837291717529e-01 -6.314516663551330566e-01 -7.264766097068786621e-01 5.580368638038635254e-01 3.497060760855674744e-02 6.624705158174037933e-03 -3.789204955101013184e-01 -4.379154741764068604e-01 -1.220288276672363281e+00 1.235847249627113342e-01 -8.300365209579467773e-01 -1.797191053628921509e-01 3.079636693000793457e-01 4.530711174011230469e-01 1.597426645457744598e-02 -1.252135038375854492e+00 1.152079582214355469e+00 8.240278959274291992e-01 -3.448451459407806396e-01 1.762460619211196899e-01 -5.694628953933715820e-01 -1.848309636116027832e-01 -1.976335197687149048e-01 -2.157983630895614624e-01 -3.943543136119842529e-01 -6.898774504661560059e-01 -9.075018018484115601e-02 3.836343586444854736e-01 3.193238675594329834e-01 -1.367276757955551147e-01 -1.278738379478454590e-01 3.947337865829467773e-01 -1.653945207595825195e+00 -3.028554320335388184e-01 -5.541396141052246094e-02 8.829313516616821289e-01 1.171394810080528259e-01 -3.433039784431457520e-02 -7.298930287361145020e-01 1.024430990219116211e+00 7.482481598854064941e-01 6.083230953663587570e-03 -1.395823240280151367e+00 -6.141641139984130859e-01 -1.434151232242584229e-01 2.212902456521987915e-01 -1.438052654266357422e+00 2.281761616468429565e-01 -8.747032880783081055e-01 9.148367047309875488e-01 -9.123720526695251465e-01 -1.226997375488281250e-01 7.084649801254272461e-01 -3.816587030887603760e-01 -4.445612728595733643e-01 -6.448065042495727539e-01 -5.310855507850646973e-01 -1.035605907440185547e+00 -2.201178222894668579e-01 2.236859872937202454e-03 1.064668148756027222e-01 -7.055056095123291016e-02 -1.834739465266466141e-03 8.239619731903076172e-01 2.898980975151062012e-01 6.106371060013771057e-03 -7.548224925994873047e-01 4.611248075962066650e-01 3.671273291110992432e-01 5.966132283210754395e-01 -2.273262023925781250e+00 2.937539339065551758e+00 1.222344160079956055e+00 -1.182944178581237793e+00 9.710779786109924316e-01 2.466911971569061279e-01 1.207570195198059082e+00 5.824577808380126953e-02 2.642991393804550171e-02 1.339904814958572388e-01 1.200756710022687912e-02 3.087766468524932861e-01 5.643829330801963806e-02 2.355511188507080078e-01 5.295079350471496582e-01 -3.584771156311035156e-01 -6.203418970108032227e-01 -3.833021521568298340e-01 8.801607042551040649e-02 1.901500672101974487e-01 -2.355989366769790649e-01 1.288015365600585938e+00 -1.245670795440673828e+00 6.632423996925354004e-01 1.174315512180328369e-01 -6.107152104377746582e-01 -1.733764410018920898e+00 -9.989406168460845947e-02 9.701513648033142090e-01 -4.751867651939392090e-01 1.636276096105575562e-01 5.758891105651855469e-01 -4.851610362529754639e-01 -1.020661294460296631e-01 4.354559779167175293e-01 1.492579102516174316e+00 1.473129630088806152e+00 1.576074123382568359e+00 -6.638928651809692383e-01 2.399369180202484131e-01 -1.099047541618347168e+00 7.285473346710205078e-01 1.022373557090759277e+00 -8.279070854187011719e-01 -5.096389725804328918e-02 6.469348669052124023e-01 -2.346234768629074097e-02 5.966395139694213867e-01 -6.297028064727783203e-01 -1.866261065006256104e-01 5.551474913954734802e-02 2.064930349588394165e-01 3.987015187740325928e-01 -5.627934932708740234e-01 -9.391041994094848633e-01 1.723456829786300659e-01 9.374566674232482910e-01 -8.556920289993286133e-01 2.367353886365890503e-01 -3.767782449722290039e-01 4.165995121002197266e-01 -6.954947710037231445e-01 7.106658220291137695e-01 -1.023114562034606934e+00 1.681074738502502441e+00 4.337507784366607666e-01 7.157236933708190918e-01 -2.070905566215515137e-01 9.401445835828781128e-02 1.445698499679565430e+00 -8.225859999656677246e-01 1.771408557891845703e+00 5.487310886383056641e-01 -6.317803263664245605e-01 1.802909076213836670e-01 3.469457328319549561e-01 8.664751648902893066e-01 -3.495620936155319214e-02 -3.474069535732269287e-01 3.919909298419952393e-01 1.046599984169006348e+00 1.723827272653579712e-01 -5.929226279258728027e-01 -8.493537455797195435e-02 1.501740366220474243e-01 -6.172000765800476074e-01 4.399553835391998291e-01 1.418369770050048828e+00 -9.954921603202819824e-01 2.810679003596305847e-02 -2.933088839054107666e-01 -5.908612012863159180e-01 4.980170428752899170e-01 -6.546182930469512939e-02 -1.067952036857604980e+00 8.975629210472106934e-01 -7.876009941101074219e-01 -9.789758324623107910e-01 7.582672238349914551e-01 -1.166674196720123291e-01 6.599508523941040039e-01 -2.783193588256835938e-01 4.944700002670288086e-01 -1.116535544395446777e+00 -2.439113259315490723e-01 8.593871593475341797e-01 -2.185458391904830933e-01 -9.800994992256164551e-01 -2.227604016661643982e-02 -5.392009615898132324e-01 -7.149209827184677124e-02 -2.744138613343238831e-02 4.219900816679000854e-02 6.266771554946899414e-01 4.414594769477844238e-01 6.610471606254577637e-01 9.854149222373962402e-01 -8.844837546348571777e-01 1.467706084251403809e+00 8.027745485305786133e-01 -3.923190236091613770e-01 -3.261496126651763916e-01 3.557085692882537842e-01 9.496030807495117188e-01 9.677375853061676025e-02 -1.340005636215209961e+00 -5.197588801383972168e-01 2.952891886234283447e-01 -5.916006118059158325e-02 3.311421871185302734e-01 -2.321912199258804321e-01 -8.678753972053527832e-01 -1.548359632492065430e+00 -3.139656484127044678e-01 -3.123998641967773438e-01 -9.327695369720458984e-01 -4.858542084693908691e-01 8.597775101661682129e-01 -6.676728725433349609e-01 -1.287279427051544189e-01 5.616508126258850098e-01 -7.459809780120849609e-01 1.125890374183654785e+00 -1.063701510429382324e+00 -6.863818317651748657e-02 -8.026228547096252441e-01 5.304942131042480469e-01 -1.814180910587310791e-01 1.354827582836151123e-01 5.608157515525817871e-01 -5.398566126823425293e-01 -8.816056698560714722e-02 -1.401891112327575684e+00 6.384667754173278809e-02 -2.621836364269256592e-01 -1.224919915199279785e+00 1.142475605010986328e+00 3.493461310863494873e-01 1.568414270877838135e-01 -4.099315777420997620e-02 -7.562443017959594727e-01