-6.239995312500000000e+04
-6.239360156250000000e+04
-6.239131250000000000e+04
-6.239192578125000000e+04
-6.239396484375000000e+04
-6.239399609375000000e+04
-6.239411718750000000e+04
-6.239329687500000000e+04
-6.239267187500000000e+04
-6.239358203125000000e+04
-6.239213281250000000e+04
-6.239416015625000000e+04
-6.239218750000000000e+04
-6.239225000000000000e+04
-6.239073828125000000e+04
-6.239195703125000000e+04
-6.239304687500000000e+04
-6.239251562500000000e+04
-6.239109375000000000e+04
-6.239104296875000000e+04
-6.239282812500000000e+04
-6.239403906250000000e+04
-6.239387890625000000e+04
-6.239232812500000000e+04
-6.239048046875000000e+04
-6.239964062500000000e+04
-6.239984765625000000e+04
-6.239826562500000000e+04
-6.239919921875000000e+04
-6.239691796875000000e+04
-6.239541796875000000e+04
-6.239495703125000000e+04
-6.239620312500000000e+04
-6.239766406250000000e+04
-6.239613281250000000e+04
-6.239445703125000000e+04
-6.239472656250000000e+04
-6.239289453125000000e+04
-6.239435156250000000e+04
-6.239343750000000000e+04
-6.239490234375000000e+04
-6.238419140625000000e+04
-6.238412109375000000e+04
-6.238529296875000000e+04
-6.238508984375000000e+04
-6.238391796875000000e+04
-6.238098437500000000e+04
-6.238122656250000000e+04
-6.237978515625000000e+04
-6.237866406250000000e+04
-6.237921093750000000e+04
-6.237745312500000000e+04
-6.237850781250000000e+04
-6.237825781250000000e+04
-6.237902734375000000e+04
-6.237802734375000000e+04
-6.237827343750000000e+04
-6.237357421875000000e+04
-6.237450781250000000e+04
-6.237641406250000000e+04
-6.237637890625000000e+04
-6.237970703125000000e+04
-6.237786328125000000e+04
-6.237771484375000000e+04
-6.237660546875000000e+04
-6.237726562500000000e+04
-6.237584765625000000e+04
-6.237753515625000000e+04
-6.237846484375000000e+04
-6.237599218750000000e+04
-6.237789453125000000e+04
-6.237884375000000000e+04
-6.237860156250000000e+04
-6.237921875000000000e+04
-6.237842968750000000e+04
-6.237907031250000000e+04
-6.237911328125000000e+04
-6.237786328125000000e+04
-6.237966015625000000e+04
-6.237785546875000000e+04
-6.237730078125000000e+04
-6.237910937500000000e+04
-6.238033593750000000e+04
-6.238693750000000000e+04
-6.238546093750000000e+04
-6.238439453125000000e+04
-6.238628515625000000e+04
-6.238455859375000000e+04
-6.238524609375000000e+04
-6.238437500000000000e+04
-6.238265625000000000e+04
-6.238113281250000000e+04
-6.238491796875000000e+04
-6.237823437500000000e+04
-6.237946875000000000e+04
-6.237978125000000000e+04
-6.238063281250000000e+04
-6.238139062500000000e+04
-6.238158203125000000e+04
-6.238257031250000000e+04
-6.238024609375000000e+04
-6.238023437500000000e+04
-6.238192968750000000e+04
-6.237937500000000000e+04
-6.237966796875000000e+04
-6.238140625000000000e+04
-6.237912890625000000e+04
-6.237593359375000000e+04
-6.237443359375000000e+04
-6.237122265625000000e+04
-6.236919921875000000e+04
-6.236960156250000000e+04
-6.236865234375000000e+04
-6.236915625000000000e+04
-6.237012500000000000e+04
-6.236675000000000000e+04
-6.236854687500000000e+04
-6.236962500000000000e+04
-6.236994531250000000e+04
-6.236913281250000000e+04
-6.236731250000000000e+04
-6.236709765625000000e+04
-6.236733203125000000e+04
-6.236485156250000000e+04
-6.236601953125000000e+04
-6.236719921875000000e+04
-6.236792578125000000e+04
-6.236833593750000000e+04
-6.236748828125000000e+04
-6.236674218750000000e+04
-6.236754687500000000e+04
-6.236775000000000000e+04
-6.236953906250000000e+04
-6.236847265625000000e+04
-6.236853906250000000e+04
-6.236900390625000000e+04
-6.236965234375000000e+04
-6.237020312500000000e+04
-6.236989843750000000e+04
-6.236715234375000000e+04
-6.236646484375000000e+04
-6.236495703125000000e+04
-6.236796875000000000e+04
-6.236898437500000000e+04
-6.236850000000000000e+04
-6.236745312500000000e+04
-6.236847265625000000e+04
-6.236791796875000000e+04
-6.238522656250000000e+04
-6.238158984375000000e+04
-6.237830078125000000e+04
-6.237600000000000000e+04
-6.237761718750000000e+04
-6.237835546875000000e+04
-6.237235937500000000e+04
-6.237457812500000000e+04
-6.237433984375000000e+04
-6.237796093750000000e+04
-6.237593359375000000e+04
-6.237678125000000000e+04
-6.237453125000000000e+04
-6.237744531250000000e+04
-6.237779687500000000e+04
-6.237735156250000000e+04
-6.237687500000000000e+04
-6.237787500000000000e+04
-6.237567968750000000e+04
-6.237560937500000000e+04
-6.237630859375000000e+04
-6.237482812500000000e+04
-6.238068359375000000e+04
-6.238192187500000000e+04
-6.237946875000000000e+04
-6.237724218750000000e+04
-6.237651562500000000e+04
-6.237564843750000000e+04
-6.237452343750000000e+04
-6.237766406250000000e+04
-6.237696093750000000e+04
-6.237839453125000000e+04
-6.237816015625000000e+04
-6.237825390625000000e+04
-6.237780859375000000e+04
-6.237820703125000000e+04
-6.238038281250000000e+04
-6.237795312500000000e+04
-6.237746093750000000e+04
-6.237701953125000000e+04
-6.239889062500000000e+04
-6.239391015625000000e+04
-6.239108984375000000e+04
-6.238953906250000000e+04
-6.238994921875000000e+04
-6.238725781250000000e+04
-6.238694140625000000e+04
-6.238816015625000000e+04
-6.238726562500000000e+04
-6.238871484375000000e+04
-6.238926953125000000e+04
-6.238881250000000000e+04
-6.238800781250000000e+04
-6.238706250000000000e+04
-6.238800781250000000e+04
-6.238987500000000000e+04
-6.238869531250000000e+04
-6.238990625000000000e+04
-6.238950390625000000e+04
-6.238816406250000000e+04
-6.238861718750000000e+04
-6.238765234375000000e+04
-6.238989453125000000e+04
-6.238957421875000000e+04
-6.239068359375000000e+04
-6.238902734375000000e+04
-6.240013671875000000e+04
-6.239835156250000000e+04
-6.239756640625000000e+04
-6.239528515625000000e+04
-6.239344921875000000e+04
-6.239518750000000000e+04
-6.239501953125000000e+04
-6.239553125000000000e+04
-6.239679296875000000e+04
-6.239543750000000000e+04
-6.239453906250000000e+04
-6.239475000000000000e+04
-6.239543750000000000e+04
-6.239479687500000000e+04
-6.239636328125000000e+04
-6.239611328125000000e+04
-6.239563281250000000e+04
-6.239568750000000000e+04
-6.239695312500000000e+04
-6.239650000000000000e+04
-6.239568750000000000e+04
-6.239545703125000000e+04
-6.239470703125000000e+04
-6.239391406250000000e+04
-6.239746484375000000e+04
-6.239628906250000000e+04
-6.239641015625000000e+04
-6.239675781250000000e+04
-6.239609375000000000e+04
-6.239691406250000000e+04
-6.239617578125000000e+04
-6.238960937500000000e+04
-6.238288281250000000e+04
-6.238592187500000000e+04
-6.238427343750000000e+04
-6.238089453125000000e+04
-6.238204296875000000e+04
-6.238130468750000000e+04
-6.238386718750000000e+04
-6.238306250000000000e+04
-6.238519921875000000e+04
-6.238378515625000000e+04
-6.238101953125000000e+04
-6.237816015625000000e+04
-6.238050390625000000e+04
-6.237974609375000000e+04
-6.238134375000000000e+04
-6.238158984375000000e+04
-6.238410156250000000e+04
-6.237967578125000000e+04
-6.237982812500000000e+04
-6.237960546875000000e+04
-6.237980468750000000e+04
-6.238109375000000000e+04
-6.238216015625000000e+04
-6.238304687500000000e+04
-6.238175390625000000e+04
-6.238169531250000000e+04
-6.238162500000000000e+04
-6.237960156250000000e+04
-6.238377734375000000e+04
-6.238288671875000000e+04
-6.238123828125000000e+04
-6.238009375000000000e+04
-6.238180468750000000e+04
-6.238455468750000000e+04
-6.238373046875000000e+04
-6.238492187500000000e+04
-6.238297265625000000e+04
-6.238089062500000000e+04
-6.238160937500000000e+04
-6.240354296875000000e+04
-6.239912500000000000e+04
-6.239215234375000000e+04
-6.238812109375000000e+04
-6.238432421875000000e+04
-6.238373437500000000e+04
-6.238231250000000000e+04
-6.237944921875000000e+04
-6.238150000000000000e+04
-6.238122656250000000e+04
-6.238192968750000000e+04
-6.238284765625000000e+04
-6.237969140625000000e+04
-6.237966406250000000e+04
-6.237748437500000000e+04
-6.238169140625000000e+04
-6.238097265625000000e+04
-6.238287890625000000e+04
-6.238344140625000000e+04
-6.238104296875000000e+04
-6.237882031250000000e+04
-6.238010156250000000e+04
-6.238173437500000000e+04
-6.238191406250000000e+04
-6.238041015625000000e+04
-6.237755859375000000e+04
-6.238056250000000000e+04
-6.237873437500000000e+04
-6.238208203125000000e+04
-6.238408984375000000e+04
-6.238137500000000000e+04
-6.238170312500000000e+04
-6.238251171875000000e+04
-6.238020312500000000e+04
-6.238101562500000000e+04
-6.238323828125000000e+04
-6.238231640625000000e+04
-6.238076171875000000e+04
-6.238239062500000000e+04
-6.238209765625000000e+04
-6.238430078125000000e+04
-6.237991406250000000e+04
-6.237964453125000000e+04
-6.237660156250000000e+04
-6.237727734375000000e+04
-6.237640625000000000e+04
-6.237307031250000000e+04
-6.236871484375000000e+04
-6.237219140625000000e+04
-6.236977734375000000e+04
-6.236977734375000000e+04
-6.236823046875000000e+04
-6.236751171875000000e+04
-6.237066406250000000e+04
-6.236828125000000000e+04
-6.236842968750000000e+04
-6.237295703125000000e+04
-6.237144921875000000e+04
-6.237133984375000000e+04
-6.237194140625000000e+04
-6.237298828125000000e+04
-6.237151562500000000e+04
-6.237323437500000000e+04
-6.237247265625000000e+04
-6.237153906250000000e+04
-6.237183203125000000e+04
-6.237345703125000000e+04
-6.237365625000000000e+04
-6.237251953125000000e+04
-6.237282421875000000e+04
-6.236903906250000000e+04
-6.236927343750000000e+04
-6.236846484375000000e+04
-6.237088281250000000e+04
-6.237111328125000000e+04
-6.237056250000000000e+04
-6.237062500000000000e+04
-6.236747265625000000e+04
-6.236658593750000000e+04
-6.236992578125000000e+04
-6.237273828125000000e+04
-6.237206250000000000e+04
-6.237033984375000000e+04
-6.238060937500000000e+04
-6.238094921875000000e+04
-6.238124609375000000e+04
-6.237768359375000000e+04
-6.237645312500000000e+04
-6.237755468750000000e+04
-6.237487500000000000e+04
-6.237694921875000000e+04
-6.237934765625000000e+04
-6.238069140625000000e+04
-6.237890234375000000e+04
-6.237772656250000000e+04
-6.237736328125000000e+04
-6.237589453125000000e+04
-6.237974609375000000e+04
-6.237849218750000000e+04
-6.238024218750000000e+04
-6.237668359375000000e+04
-6.237707031250000000e+04
-6.237762109375000000e+04
-6.237457031250000000e+04
-6.237411328125000000e+04
-6.237248828125000000e+04
-6.237542968750000000e+04
-6.237537890625000000e+04
-6.237501953125000000e+04
-6.237725390625000000e+04
-6.237844531250000000e+04
-6.237571875000000000e+04
-6.237968750000000000e+04
-6.237738671875000000e+04
-6.237595703125000000e+04
-6.237367578125000000e+04
-6.237264062500000000e+04
-6.237246875000000000e+04
-6.237317968750000000e+04
-6.237248046875000000e+04
-6.237283203125000000e+04
-6.239852343750000000e+04
-6.239762109375000000e+04
-6.239550781250000000e+04
-6.239324218750000000e+04
-6.239214453125000000e+04
-6.239140625000000000e+04
-6.239226562500000000e+04
-6.239322265625000000e+04
-6.239120312500000000e+04
-6.239221484375000000e+04
-6.239098828125000000e+04
-6.239137890625000000e+04
-6.239111718750000000e+04
-6.239235546875000000e+04
-6.239253125000000000e+04
-6.238961328125000000e+04
-6.239051953125000000e+04
-6.239044140625000000e+04
-6.239085937500000000e+04
-6.239151171875000000e+04
-6.239242578125000000e+04
-6.239107421875000000e+04
-6.239131250000000000e+04
-6.239237500000000000e+04
-6.239359375000000000e+04
-6.239370312500000000e+04
-6.239303906250000000e+04
-6.239117968750000000e+04
-6.239249218750000000e+04
-6.239195312500000000e+04
-6.239927343750000000e+04
-6.239933984375000000e+04
-6.239673046875000000e+04
-6.239610156250000000e+04
-6.239462109375000000e+04
-6.239246093750000000e+04
-6.239341406250000000e+04
-6.239376562500000000e+04
-6.239486328125000000e+04
-6.239325781250000000e+04
-6.239397656250000000e+04
-6.239288671875000000e+04
-6.239191796875000000e+04
-6.239167578125000000e+04
-6.239220312500000000e+04
-6.239214843750000000e+04
-6.239457421875000000e+04
-6.239269531250000000e+04
-6.239195312500000000e+04
-6.239246875000000000e+04
-6.239242968750000000e+04
-6.239250390625000000e+04
-6.239244140625000000e+04
-6.239225390625000000e+04
-6.239170312500000000e+04
-6.239199218750000000e+04
-6.239237500000000000e+04
-6.239260156250000000e+04
-6.239232812500000000e+04
-6.239248046875000000e+04
-6.238403906250000000e+04
-6.238238281250000000e+04
-6.237983593750000000e+04
-6.238055859375000000e+04
-6.238376953125000000e+04
-6.238330859375000000e+04
-6.238279687500000000e+04
-6.238161328125000000e+04
-6.237988671875000000e+04
-6.237905078125000000e+04
-6.237717578125000000e+04
-6.237643750000000000e+04
-6.237828125000000000e+04
-6.237865625000000000e+04
-6.237759765625000000e+04
-6.238003906250000000e+04
-6.237790625000000000e+04
-6.237837109375000000e+04
-6.237625781250000000e+04
-6.237869921875000000e+04
-6.237932421875000000e+04
-6.237711328125000000e+04
-6.237616406250000000e+04
-6.237758984375000000e+04
-6.237664453125000000e+04
-6.237933203125000000e+04
-6.237828125000000000e+04
-6.237792968750000000e+04
-6.237823828125000000e+04
-6.237666406250000000e+04
-6.237851171875000000e+04
-6.237720312500000000e+04
-6.237849609375000000e+04
-6.237539843750000000e+04
-6.237655468750000000e+04
-6.237590625000000000e+04
-6.237523046875000000e+04
-6.237594531250000000e+04
-6.237719921875000000e+04
-6.237766406250000000e+04
-6.238037500000000000e+04
-6.239748437500000000e+04
-6.238203125000000000e+04
-6.238225000000000000e+04
-6.238043359375000000e+04
-6.237756250000000000e+04
-6.237546875000000000e+04
-6.237688671875000000e+04
-6.237712109375000000e+04
-6.237785937500000000e+04
-6.237714843750000000e+04
-6.237585156250000000e+04
-6.237714453125000000e+04
-6.237730078125000000e+04
-6.237805859375000000e+04
-6.237791015625000000e+04
-6.238117968750000000e+04
-6.237984375000000000e+04
-6.237996484375000000e+04
-6.238049609375000000e+04
-6.237830078125000000e+04
-6.237791796875000000e+04
-6.237838281250000000e+04
-6.238029296875000000e+04
-6.237986328125000000e+04
-6.237925781250000000e+04
-6.237837500000000000e+04
-6.237837109375000000e+04
-6.238031250000000000e+04
-6.238042968750000000e+04
-6.237896484375000000e+04
-6.238006640625000000e+04
-6.238036718750000000e+04
-6.238025781250000000e+04
-6.238213671875000000e+04
-6.238301953125000000e+04
-6.238105859375000000e+04
-6.238020703125000000e+04
-6.237817187500000000e+04
-6.237754296875000000e+04
-6.238042187500000000e+04
-6.237579687500000000e+04
-6.237687500000000000e+04
-6.237411328125000000e+04
-6.237253906250000000e+04
-6.237002343750000000e+04
-6.236725390625000000e+04
-6.236601562500000000e+04
-6.236860546875000000e+04
-6.236890625000000000e+04
-6.237009375000000000e+04
-6.237171875000000000e+04
-6.237089843750000000e+04
-6.236946484375000000e+04
-6.237134375000000000e+04
-6.237241406250000000e+04
-6.237061328125000000e+04
-6.237246875000000000e+04
-6.237597265625000000e+04
-6.237586718750000000e+04
-6.237551171875000000e+04
-6.237630468750000000e+04
-6.237539062500000000e+04
-6.237857031250000000e+04
-6.237544531250000000e+04
-6.237530468750000000e+04
-6.237426171875000000e+04
-6.237369921875000000e+04
-6.237276171875000000e+04
-6.237276562500000000e+04
-6.237510156250000000e+04
-6.237539453125000000e+04
-6.237403125000000000e+04
-6.237332031250000000e+04
-6.237206640625000000e+04
-6.237371093750000000e+04
-6.237419140625000000e+04
-6.237469531250000000e+04
-6.237381640625000000e+04
-6.237119921875000000e+04
-6.237122656250000000e+04
-6.238449609375000000e+04
-6.238124609375000000e+04
-6.238143359375000000e+04
-6.237724218750000000e+04
-6.237634765625000000e+04
-6.237864453125000000e+04
-6.237888281250000000e+04
-6.237964453125000000e+04
-6.237892187500000000e+04
-6.237731640625000000e+04
-6.237632421875000000e+04
-6.237688281250000000e+04
-6.237561328125000000e+04
-6.237710546875000000e+04
-6.237728515625000000e+04
-6.237992578125000000e+04
-6.237687890625000000e+04
-6.237947265625000000e+04
-6.237891406250000000e+04
-6.237567187500000000e+04
-6.237542578125000000e+04
-6.237507421875000000e+04
-6.237366015625000000e+04
-6.237558593750000000e+04
-6.237406250000000000e+04
-6.237257031250000000e+04
-6.237489453125000000e+04
-6.237645703125000000e+04
-6.237748046875000000e+04
-6.237367578125000000e+04
-6.237650390625000000e+04
-6.237396875000000000e+04
-6.237255078125000000e+04
-6.237064453125000000e+04
-6.237318359375000000e+04
-6.237085156250000000e+04
-6.237408593750000000e+04
-6.237201953125000000e+04
-6.237385546875000000e+04
-6.237384375000000000e+04
-6.237114062500000000e+04
-6.237312890625000000e+04
-6.239953906250000000e+04
-6.239566796875000000e+04
-6.239500781250000000e+04
-6.239309765625000000e+04
-6.239212890625000000e+04
-6.239039453125000000e+04
-6.239040625000000000e+04
-6.239200390625000000e+04
-6.239064062500000000e+04
-6.238914062500000000e+04
-6.239192187500000000e+04
-6.239180468750000000e+04
-6.239094140625000000e+04
-6.239271093750000000e+04
-6.238934765625000000e+04
-6.239055078125000000e+04
-6.239145312500000000e+04
-6.239188281250000000e+04
-6.239300390625000000e+04
-6.239133203125000000e+04
-6.239080078125000000e+04
-6.239364453125000000e+04
-6.239219921875000000e+04
-6.239017187500000000e+04
-6.239082421875000000e+04
-6.239072656250000000e+04
-6.238989453125000000e+04
-6.238926171875000000e+04
-6.239094921875000000e+04
-6.238983593750000000e+04
-6.239089453125000000e+04
-6.238936718750000000e+04
-6.238705468750000000e+04
-6.238814843750000000e+04
-6.238835156250000000e+04
-6.239615234375000000e+04
-6.239560156250000000e+04
-6.239414062500000000e+04
-6.239303125000000000e+04
-6.239228125000000000e+04
-6.239365234375000000e+04
-6.239145703125000000e+04
-6.239340234375000000e+04
-6.239405078125000000e+04
-6.239175781250000000e+04
-6.239358984375000000e+04
-6.239311718750000000e+04
-6.239434765625000000e+04
-6.239457031250000000e+04
-6.239440234375000000e+04
-6.239232421875000000e+04
-6.239346875000000000e+04
-6.239289453125000000e+04
-6.238866796875000000e+04
-6.238652734375000000e+04
-6.238535546875000000e+04
-6.238439843750000000e+04
-6.238244921875000000e+04
-6.238224218750000000e+04
-6.238144531250000000e+04
-6.238381640625000000e+04
-6.238176953125000000e+04
-6.237944531250000000e+04
-6.238189453125000000e+04
-6.238236328125000000e+04
-6.238225781250000000e+04
-6.237780468750000000e+04
-6.237994921875000000e+04
-6.237860156250000000e+04
-6.238064453125000000e+04
-6.237896093750000000e+04
-6.238057421875000000e+04
-6.238067187500000000e+04
-6.238018359375000000e+04
-6.237841406250000000e+04
-6.237658203125000000e+04
-6.237733593750000000e+04
-6.237789453125000000e+04
-6.237837500000000000e+04
-6.238068750000000000e+04
-6.237862890625000000e+04
-6.237907031250000000e+04
-6.238225000000000000e+04
-6.237988281250000000e+04
-6.237831640625000000e+04
-6.237787890625000000e+04
-6.237816406250000000e+04
-6.237814843750000000e+04
-6.237718750000000000e+04
-6.237761718750000000e+04
-6.237625390625000000e+04
-6.237792578125000000e+04
-6.237826953125000000e+04
-6.237848828125000000e+04
-6.238976953125000000e+04
-6.238769531250000000e+04
-6.238638671875000000e+04
-6.238357031250000000e+04
-6.238283593750000000e+04
-6.238506640625000000e+04
-6.238253515625000000e+04
-6.238177343750000000e+04
-6.238240234375000000e+04
-6.238458984375000000e+04
-6.238262109375000000e+04
-6.238425781250000000e+04
-6.238651953125000000e+04
-6.238253125000000000e+04
-6.238344531250000000e+04
-6.238376171875000000e+04
-6.238472265625000000e+04
-6.238379687500000000e+04
-6.238308203125000000e+04
-6.238205468750000000e+04
-6.238221484375000000e+04
-6.237996484375000000e+04
-6.238206250000000000e+04
-6.238207421875000000e+04
-6.238423828125000000e+04
-6.238372265625000000e+04
-6.238508203125000000e+04
-6.238382812500000000e+04
-6.238238281250000000e+04
-6.238249218750000000e+04
-6.237685937500000000e+04
-6.237517968750000000e+04
-6.237639453125000000e+04
-6.237498046875000000e+04
-6.237191015625000000e+04
-6.237251562500000000e+04
-6.237066796875000000e+04
-6.237305078125000000e+04
-6.237243750000000000e+04
-6.237224218750000000e+04
-6.237308203125000000e+04
-6.237280468750000000e+04
-6.237108203125000000e+04
-6.237055859375000000e+04
-6.237133203125000000e+04
-6.236996093750000000e+04
-6.236989843750000000e+04
-6.236903515625000000e+04
-6.236702343750000000e+04
-6.237005859375000000e+04
-6.237265234375000000e+04
-6.237215234375000000e+04
-6.237477343750000000e+04
-6.237512500000000000e+04
-6.237212890625000000e+04
-6.237012890625000000e+04
-6.237145312500000000e+04
-6.237275781250000000e+04
-6.237538281250000000e+04
-6.237198828125000000e+04
-6.237409375000000000e+04
-6.237314843750000000e+04
-6.237128515625000000e+04
-6.236981640625000000e+04
-6.237030468750000000e+04
-6.236923437500000000e+04
-6.237049218750000000e+04
-6.237073046875000000e+04
-6.237264843750000000e+04
-6.237269140625000000e+04
-6.237200390625000000e+04
-6.237175000000000000e+04
-6.237369921875000000e+04
-6.236975000000000000e+04
-6.236882421875000000e+04
-6.238296484375000000e+04
-6.238004687500000000e+04
-6.238071484375000000e+04
-6.238110156250000000e+04
-6.237791015625000000e+04
-6.237587890625000000e+04
-6.237339843750000000e+04
-6.237540625000000000e+04
-6.237532031250000000e+04
-6.237718359375000000e+04
-6.237828125000000000e+04
-6.237480078125000000e+04
-6.237562500000000000e+04
-6.237417578125000000e+04
-6.237568359375000000e+04
-6.237247656250000000e+04
-6.237230859375000000e+04
-6.237194921875000000e+04
-6.237271093750000000e+04
-6.237100000000000000e+04
-6.237022265625000000e+04
-6.237189843750000000e+04
-6.237107421875000000e+04
-6.237471093750000000e+04
-6.237466406250000000e+04
-6.237344921875000000e+04
-6.237241796875000000e+04
-6.237196093750000000e+04
-6.237195703125000000e+04
-6.237060156250000000e+04
-6.237262109375000000e+04
-6.237653515625000000e+04
-6.237667578125000000e+04
-6.237351562500000000e+04
-6.237631250000000000e+04
-6.237328125000000000e+04
-6.237486328125000000e+04
-6.237767968750000000e+04
-6.237573046875000000e+04
-6.237483593750000000e+04
-6.237523437500000000e+04
-6.237493750000000000e+04
-6.237676171875000000e+04
-6.240312109375000000e+04
-6.239947656250000000e+04
-6.239955078125000000e+04
-6.238965234375000000e+04
-6.238874218750000000e+04
-6.239000000000000000e+04
-6.239133593750000000e+04
-6.238754687500000000e+04
-6.238814453125000000e+04
-6.238756250000000000e+04
-6.238760546875000000e+04
-6.238826953125000000e+04
-6.238654687500000000e+04
-6.238752343750000000e+04
-6.238734375000000000e+04
-6.238677734375000000e+04
-6.238692578125000000e+04
-6.238659765625000000e+04
-6.238602734375000000e+04
-6.238714453125000000e+04
-6.238508203125000000e+04
-6.238578906250000000e+04
-6.238781640625000000e+04
-6.238806640625000000e+04
-6.238665234375000000e+04
-6.238698046875000000e+04
-6.238733593750000000e+04
-6.238687109375000000e+04
-6.238844921875000000e+04
-6.238775781250000000e+04
-6.238907421875000000e+04
-6.238942968750000000e+04
-6.240107812500000000e+04
-6.240063671875000000e+04
-6.239532031250000000e+04
-6.239336718750000000e+04
-6.239287500000000000e+04
-6.239503515625000000e+04
-6.239280078125000000e+04
-6.239266015625000000e+04
-6.239243359375000000e+04
-6.239216406250000000e+04
-6.239158203125000000e+04
-6.239111328125000000e+04
-6.238981250000000000e+04
-6.238921093750000000e+04
-6.239053906250000000e+04
-6.239084765625000000e+04
-6.239157031250000000e+04
-6.238933984375000000e+04
-6.238900000000000000e+04
-6.239100000000000000e+04
-6.239109765625000000e+04
-6.239168359375000000e+04
-6.239081250000000000e+04
-6.239248828125000000e+04
-6.239286718750000000e+04
-6.239178906250000000e+04
-6.239213281250000000e+04
-6.239047656250000000e+04
-6.239263281250000000e+04
-6.239101171875000000e+04
-6.239030468750000000e+04
-6.239025000000000000e+04
-6.239110546875000000e+04
-6.238754687500000000e+04
-6.238750390625000000e+04
-6.238661328125000000e+04
-6.238386718750000000e+04
-6.238455078125000000e+04
-6.238533593750000000e+04
-6.238195312500000000e+04
-6.238403515625000000e+04
-6.238264062500000000e+04
-6.238217578125000000e+04
-6.238257031250000000e+04
-6.238396484375000000e+04
-6.238262890625000000e+04
-6.238423046875000000e+04
-6.238359765625000000e+04
-6.238398437500000000e+04
-6.238216015625000000e+04
-6.238083984375000000e+04
-6.237992578125000000e+04
-6.238103125000000000e+04
-6.238264453125000000e+04
-6.238193750000000000e+04
-6.238052343750000000e+04
-6.237860937500000000e+04
-6.237787500000000000e+04
-6.237933203125000000e+04
-6.238150390625000000e+04
-6.238275781250000000e+04
-6.238157421875000000e+04
-6.238389062500000000e+04
-6.238216406250000000e+04
-6.237772265625000000e+04
-6.237967578125000000e+04
-6.238098828125000000e+04
-6.238219531250000000e+04
-6.238037500000000000e+04
-6.238047656250000000e+04
-6.237950781250000000e+04
-6.238457421875000000e+04
-6.238275000000000000e+04
-6.237898437500000000e+04
-6.237847656250000000e+04
-6.237696484375000000e+04
-6.238037109375000000e+04
-6.238106640625000000e+04
-6.238149609375000000e+04
-6.238189062500000000e+04
-6.238363671875000000e+04
-6.238339453125000000e+04
-6.238282031250000000e+04
-6.238049609375000000e+04
-6.238153515625000000e+04
-6.238201562500000000e+04
-6.238185937500000000e+04
-6.238070703125000000e+04
-6.237941796875000000e+04
-6.237923437500000000e+04
-6.237879687500000000e+04
-6.238245312500000000e+04
-6.238107812500000000e+04
-6.238167187500000000e+04
-6.238165625000000000e+04
-6.238054687500000000e+04
-6.238301562500000000e+04
-6.238005078125000000e+04
-6.238262890625000000e+04
-6.238081640625000000e+04
-6.237967968750000000e+04
-6.237625000000000000e+04
-6.237776171875000000e+04
-6.237901953125000000e+04
-6.238215234375000000e+04
-6.238023437500000000e+04
-6.238211328125000000e+04
-6.238280468750000000e+04
-6.238200390625000000e+04
-6.238098828125000000e+04
-6.238011718750000000e+04
-6.238031640625000000e+04
-6.237701562500000000e+04
-6.237701171875000000e+04
-6.237553906250000000e+04
-6.237683593750000000e+04
-6.237377734375000000e+04
-6.237536718750000000e+04
-6.237434375000000000e+04
-6.237317968750000000e+04
-6.237615625000000000e+04
-6.237701171875000000e+04
-6.237312890625000000e+04
-6.236992968750000000e+04
-6.237095703125000000e+04
-6.236883593750000000e+04
-6.236945312500000000e+04
-6.237070312500000000e+04
-6.236807812500000000e+04
-6.236889843750000000e+04
-6.237360546875000000e+04
-6.236848437500000000e+04
-6.237360546875000000e+04
-6.236839843750000000e+04
-6.237011718750000000e+04
-6.236939453125000000e+04
-6.237326562500000000e+04
-6.237360937500000000e+04
-6.237261328125000000e+04
-6.237085546875000000e+04
-6.237133984375000000e+04
-6.237184765625000000e+04
-6.237419921875000000e+04
-6.237382031250000000e+04
-6.237253515625000000e+04
-6.237269921875000000e+04
-6.237352343750000000e+04
-6.237340234375000000e+04
-6.237214062500000000e+04
-6.237260156250000000e+04
-6.237183984375000000e+04
-6.237142578125000000e+04
-6.237472656250000000e+04
-6.237126562500000000e+04
-6.237418359375000000e+04
-6.237872656250000000e+04
-6.237565234375000000e+04
-6.237319921875000000e+04
-6.237177734375000000e+04
-6.237447265625000000e+04
-6.237605859375000000e+04
-6.237093750000000000e+04
-6.236963281250000000e+04
-6.237062890625000000e+04
-6.237027343750000000e+04
-6.236992578125000000e+04
-6.236980859375000000e+04
-6.237091796875000000e+04
-6.236867187500000000e+04
-6.237345703125000000e+04
-6.237330468750000000e+04
-6.237506250000000000e+04
-6.237016796875000000e+04
-6.237172656250000000e+04
-6.237270703125000000e+04
-6.237184765625000000e+04
-6.237346875000000000e+04
-6.237399609375000000e+04
-6.237084765625000000e+04
-6.237422265625000000e+04
-6.237510156250000000e+04
-6.237217187500000000e+04
-6.237639453125000000e+04
-6.237431250000000000e+04
-6.237417187500000000e+04
-6.237453125000000000e+04
-6.237617968750000000e+04
-6.237510546875000000e+04
-6.237717578125000000e+04
-6.237715625000000000e+04
-6.237403515625000000e+04
-6.237508593750000000e+04
-6.237710937500000000e+04
-6.237647265625000000e+04
-6.237537109375000000e+04
-6.239781640625000000e+04
-6.240117968750000000e+04
-6.239433593750000000e+04
-6.239365234375000000e+04
-6.238911328125000000e+04
-6.238790234375000000e+04
-6.238850000000000000e+04
-6.238902734375000000e+04
-6.238885937500000000e+04
-6.238745312500000000e+04
-6.238803515625000000e+04
-6.238813281250000000e+04
-6.238683593750000000e+04
-6.238864062500000000e+04
-6.238805078125000000e+04
-6.238855468750000000e+04
-6.238810156250000000e+04
-6.238814453125000000e+04
-6.238969921875000000e+04
-6.238820312500000000e+04
-6.240159375000000000e+04
-6.240078906250000000e+04
-6.239921093750000000e+04
-6.239728906250000000e+04
-6.239513281250000000e+04
-6.239022265625000000e+04
-6.239102343750000000e+04
-6.239225781250000000e+04
-6.239334765625000000e+04
-6.239341406250000000e+04
-6.239366406250000000e+04
-6.239369531250000000e+04
-6.239548828125000000e+04
-6.239430468750000000e+04
-6.239337500000000000e+04
-6.239258984375000000e+04
-6.239115234375000000e+04
-6.239488281250000000e+04
-6.239454687500000000e+04
-6.239623828125000000e+04
-6.239505468750000000e+04
-6.239443750000000000e+04
-6.239383984375000000e+04
-6.239218359375000000e+04
-6.239410937500000000e+04
-6.239336718750000000e+04
-6.239430078125000000e+04
-6.239421093750000000e+04
-6.239489453125000000e+04
-6.239432421875000000e+04
-6.239323828125000000e+04
-6.239205859375000000e+04
-6.239194140625000000e+04
-6.239317968750000000e+04
-6.238826171875000000e+04
-6.238853125000000000e+04
-6.238521484375000000e+04
-6.238013671875000000e+04
-6.238240625000000000e+04
-6.238026171875000000e+04
-6.237952343750000000e+04
-6.237853125000000000e+04
-6.237872656250000000e+04
-6.237829296875000000e+04
-6.237820703125000000e+04
-6.237931250000000000e+04
-6.237845312500000000e+04
-6.237962890625000000e+04
-6.237988671875000000e+04
-6.238013671875000000e+04
-6.238133984375000000e+04
-6.238142187500000000e+04
-6.238138671875000000e+04
-6.238222265625000000e+04
-6.238138281250000000e+04
-6.238187500000000000e+04
-6.238179687500000000e+04
-6.238061328125000000e+04
-6.238142968750000000e+04
-6.237965625000000000e+04
-6.238181640625000000e+04
-6.237951562500000000e+04
-6.237788671875000000e+04
-6.237878125000000000e+04
-6.238060546875000000e+04