8.417809486389160156e+00 7.859635353088378906e+00 -7.141321659088134766e+00 7.859635353088378906e+00 -9.964643120765686035e-01 -1.042562816292047501e-02 -7.141321659088134766e+00 -1.042562816292047501e-02 -6.381885528564453125e+00
1.035073566436767578e+01 -2.916632175445556641e+00 -1.191795158386230469e+01 -2.916632175445556641e+00 7.560069084167480469e+00 -1.365031528472900391e+01 -1.191795158386230469e+01 -1.365031528472900391e+01 -1.295333766937255859e+01
2.002050209045410156e+01 4.502353072166442871e-01 -4.207822978496551514e-01 4.502353072166442871e-01 8.946275711059570312e+00 -1.022133064270019531e+01 -4.207822978496551514e-01 -1.022133064270019531e+01 2.555483627319335938e+01
1.901765632629394531e+01 6.170078180730342865e-03 -1.046494007110595703e+01 6.170078180730342865e-03 -3.657675504684448242e+00 -9.715437889099121094e+00 -1.046494007110595703e+01 -9.715437889099121094e+00 -4.504526138305664062e+00
1.034978199005126953e+01 -6.180975914001464844e+00 5.221251964569091797e+00 -6.180975914001464844e+00 -9.798934936523437500e+00 5.587490797042846680e-01 5.221251964569091797e+00 5.587490797042846680e-01 1.659078025817871094e+01
7.444420337677001953e+00 -1.625816106796264648e+00 -1.679028701782226562e+01 -1.625816106796264648e+00 8.389086723327636719e+00 -6.147246837615966797e+00 -1.679028701782226562e+01 -6.147246837615966797e+00 1.165524578094482422e+01
3.199546813964843750e+01 -6.781366825103759766e+00 8.125767111778259277e-01 -6.781366825103759766e+00 -1.379860877990722656e+00 -2.102655410766601562e+00 8.125767111778259277e-01 -2.102655410766601562e+00 1.378695392608642578e+01
-6.981518745422363281e+00 -1.082612800598144531e+01 9.769576072692871094e+00 -1.082612800598144531e+01 -4.474960327148437500e+00 4.617070198059082031e+00 9.769576072692871094e+00 4.617070198059082031e+00 7.991494178771972656e+00
-2.025825738906860352e+00 9.081110954284667969e+00 -1.104227542877197266e+00 9.081110954284667969e+00 1.082166576385498047e+01 -2.287852764129638672e+00 -1.104227542877197266e+00 -2.287852764129638672e+00 1.573841285705566406e+01
2.742467403411865234e+00 2.970910549163818359e+00 -1.420861244201660156e+00 2.970910549163818359e+00 1.116437149047851562e+01 -3.216944038867950439e-01 -1.420861244201660156e+00 -3.216944038867950439e-01 2.471339797973632812e+01
3.330344390869140625e+01 -5.442794322967529297e+00 -5.670537948608398438e+00 -5.442794322967529297e+00 1.691723823547363281e+01 1.085206794738769531e+01 -5.670537948608398438e+00 1.085206794738769531e+01 1.782401275634765625e+01
-1.376627445220947266e+01 -9.865710258483886719e+00 -5.293471813201904297e+00 -9.865710258483886719e+00 -1.312482070922851562e+01 4.120678305625915527e-01 -5.293471813201904297e+00 4.120678305625915527e-01 5.930337429046630859e+00
3.162808179855346680e+00 2.834084272384643555e+00 -1.022570514678955078e+01 2.834084272384643555e+00 2.532720184326171875e+01 -9.124401092529296875e+00 -1.022570514678955078e+01 -9.124401092529296875e+00 2.000760841369628906e+01
6.269588470458984375e+00 6.019607782363891602e-01 3.861362934112548828e+00 6.019607782363891602e-01 1.346920394897460938e+01 5.239267349243164062e+00 3.861362934112548828e+00 5.239267349243164062e+00 1.656105995178222656e+01
1.691050529479980469e+01 2.973084449768066406e+00 8.259289741516113281e+00 2.973084449768066406e+00 1.631712913513183594e+01 1.298463535308837891e+01 8.259289741516113281e+00 1.298463535308837891e+01 2.497066879272460938e+01
2.482007026672363281e+01 2.750021934509277344e+00 -2.568773984909057617e+00 2.750021934509277344e+00 2.286858940124511719e+01 -1.948837399482727051e+00 -2.568773984909057617e+00 -1.948837399482727051e+00 2.150679588317871094e+01
4.329316139221191406e+00 -1.783476829528808594e+01 -6.563510298728942871e-01 -1.783476829528808594e+01 2.473854780197143555e+00 6.520562171936035156e+00 -6.563510298728942871e-01 6.520562171936035156e+00 2.946723222732543945e+00
1.927211189270019531e+01 -8.808728218078613281e+00 4.466937541961669922e+00 -8.808728218078613281e+00 5.430607795715332031e+00 5.634166240692138672e+00 4.466937541961669922e+00 5.634166240692138672e+00 1.294928550720214844e+01
1.559699630737304688e+01 -8.292018175125122070e-01 1.778986901044845581e-01 -8.292018175125122070e-01 6.704400062561035156e+00 -1.722604513168334961e+00 1.778986901044845581e-01 -1.722604513168334961e+00 2.783690834045410156e+01
5.578021049499511719e+00 2.523555755615234375e-01 -1.384574794769287109e+01 2.523555755615234375e-01 2.119134330749511719e+01 -1.483275508880615234e+01 -1.384574794769287109e+01 -1.483275508880615234e+01 5.385822296142578125e+00
2.057687759399414062e+01 2.902191400527954102e+00 -4.418509960174560547e+00 2.902191400527954102e+00 3.344336032867431641e+00 3.731964111328125000e+00 -4.418509960174560547e+00 3.731964111328125000e+00 1.176093101501464844e+01
1.641221618652343750e+01 -1.296078014373779297e+01 -5.523725509643554688e+00 -1.296078014373779297e+01 -1.235059857368469238e+00 1.469714164733886719e+01 -5.523725509643554688e+00 1.469714164733886719e+01 3.631382286548614502e-01
2.905408668518066406e+01 5.617442131042480469e+00 3.628212690353393555e+00 5.617442131042480469e+00 1.129921245574951172e+01 1.161910724639892578e+01 3.628212690353393555e+00 1.161910724639892578e+01 1.927809524536132812e+01
8.049287796020507812e+00 1.210622191429138184e+00 1.767392903566360474e-01 1.210622191429138184e+00 7.843833446502685547e+00 -3.895836830139160156e+00 1.767392903566360474e-01 -3.895836830139160156e+00 3.197345924377441406e+01
1.773879623413085938e+01 -4.241489887237548828e+00 -2.774827480316162109e+00 -4.241489887237548828e+00 9.775004386901855469e+00 4.302457332611083984e+00 -2.774827480316162109e+00 4.302457332611083984e+00 1.806158828735351562e+01
3.546895503997802734e+00 7.094467639923095703e+00 5.769157886505126953e+00 7.094467639923095703e+00 -3.247420120239257812e+01 4.042970836162567139e-01 5.769157886505126953e+00 4.042970836162567139e-01 -1.613254928588867188e+01
3.694148063659667969e+00 -1.407598304748535156e+01 4.778368473052978516e+00 -1.407598304748535156e+01 -4.195179939270019531e+00 1.484667658805847168e+00 4.778368473052978516e+00 1.484667658805847168e+00 1.238625144958496094e+01
4.570464134216308594e+00 2.825375795364379883e+00 -4.394237041473388672e+00 2.825375795364379883e+00 7.529232978820800781e+00 -1.171592116355895996e+00 -4.394237041473388672e+00 -1.171592116355895996e+00 1.906448936462402344e+01
4.361369013786315918e-01 -9.719524383544921875e-01 1.550142168998718262e+00 -9.719524383544921875e-01 -6.793846487998962402e-01 6.653134822845458984e+00 1.550142168998718262e+00 6.653134822845458984e+00 1.860959053039550781e+01
1.083628940582275391e+01 1.060497665405273438e+01 1.061806583404541016e+01 1.060497665405273438e+01 -1.970934152603149414e+00 3.428978443145751953e+00 1.061806583404541016e+01 3.428978443145751953e+00 2.139738082885742188e+01
2.837544441223144531e+01 -5.492812022566795349e-02 -7.998406887054443359e-01 -5.492812022566795349e-02 -8.235137939453125000e+00 1.275087738037109375e+01 -7.998406887054443359e-01 1.275087738037109375e+01 2.731114578247070312e+01
6.715986251831054688e+00 1.055412197113037109e+01 1.144400978088378906e+01 1.055412197113037109e+01 1.091564559936523438e+01 2.214482116699218750e+01 1.144400978088378906e+01 2.214482116699218750e+01 1.148344397544860840e+00
8.895226478576660156e+00 -1.105070948600769043e+00 1.778177070617675781e+01 -1.105070948600769043e+00 7.252700328826904297e+00 6.987888813018798828e+00 1.778177070617675781e+01 6.987888813018798828e+00 -1.139267802238464355e+00
-4.648662567138671875e+00 -6.282998085021972656e+00 1.929307937622070312e+00 -6.282998085021972656e+00 -9.261419296264648438e+00 1.560988330841064453e+01 1.929307937622070312e+00 1.560988330841064453e+01 3.872449398040771484e+00
7.606596946716308594e+00 -7.537322998046875000e+00 8.436779022216796875e+00 -7.537322998046875000e+00 -3.745880603790283203e+00 1.199931240081787109e+01 8.436779022216796875e+00 1.199931240081787109e+01 1.519439315795898438e+01
2.815669059753417969e+01 -1.801666617393493652e+00 4.110478401184082031e+00 -1.801666617393493652e+00 -6.015085697174072266e+00 1.282339382171630859e+01 4.110478401184082031e+00 1.282339382171630859e+01 2.304535484313964844e+01
-2.048596143722534180e+00 -4.522667884826660156e+00 1.556783771514892578e+01 -4.522667884826660156e+00 -7.620880126953125000e+00 -5.889611244201660156e+00 1.556783771514892578e+01 -5.889611244201660156e+00 8.007967948913574219e+00
1.517600154876708984e+01 1.079346090555191040e-01 9.266222953796386719e+00 1.079346090555191040e-01 1.081425094604492188e+01 1.202183246612548828e+01 9.266222953796386719e+00 1.202183246612548828e+01 2.022868537902832031e+01
9.359283447265625000e+00 -1.054130077362060547e+01 -1.291744995117187500e+01 -1.054130077362060547e+01 9.944993019104003906e+00 1.477091312408447266e+01 -1.291744995117187500e+01 1.477091312408447266e+01 2.234172058105468750e+01
1.070806789398193359e+01 -3.980472087860107422e+00 7.245167732238769531e+00 -3.980472087860107422e+00 -2.505149126052856445e+00 1.149547290802001953e+01 7.245167732238769531e+00 1.149547290802001953e+01 1.078164863586425781e+01
8.044677972793579102e-01 -8.492772102355957031e+00 2.956720352172851562e+00 -8.492772102355957031e+00 -6.272603988647460938e+00 7.557994842529296875e+00 2.956720352172851562e+00 7.557994842529296875e+00 1.575405311584472656e+01
-1.852512550354003906e+01 -8.494722843170166016e-01 4.787656784057617188e+00 -8.494722843170166016e-01 -2.700370550155639648e+00 -2.943236351013183594e+00 4.787656784057617188e+00 -2.943236351013183594e+00 2.070125579833984375e+01
-3.660827502608299255e-02 1.251253128051757812e+00 -7.480854034423828125e+00 1.251253128051757812e+00 -6.559138774871826172e+00 9.029676437377929688e+00 -7.480854034423828125e+00 9.029676437377929688e+00 1.352128887176513672e+01
-2.968498706817626953e+00 -3.909280300140380859e+00 4.140940606594085693e-01 -3.909280300140380859e+00 1.978962898254394531e+01 -2.773368597030639648e+00 4.140940606594085693e-01 -2.773368597030639648e+00 1.060629367828369141e+01
-2.232292413711547852e+00 5.763995170593261719e+00 -1.012202262878417969e+00 5.763995170593261719e+00 -7.149443626403808594e+00 -5.989940643310546875e+00 -1.012202262878417969e+00 -5.989940643310546875e+00 1.457426548004150391e+00
-1.133201885223388672e+01 5.589763164520263672e+00 1.113311958312988281e+01 5.589763164520263672e+00 -1.173281955718994141e+01 -9.047057151794433594e+00 1.113311958312988281e+01 -9.047057151794433594e+00 2.979231119155883789e+00
1.056582736968994141e+01 3.581647872924804688e+00 2.636246919631958008e+00 3.581647872924804688e+00 -4.717807292938232422e+00 1.870144653320312500e+01 2.636246919631958008e+00 1.870144653320312500e+01 3.064556884765625000e+01
1.676456212997436523e+00 -3.674954414367675781e+00 9.422107696533203125e+00 -3.674954414367675781e+00 1.244050407409667969e+01 -9.943522453308105469e+00 9.422107696533203125e+00 -9.943522453308105469e+00 1.527346801757812500e+01
-9.578712463378906250e+00 1.839722245931625366e-01 5.979738712310791016e+00 1.839722245931625366e-01 3.650265121459960938e+01 -7.041229724884033203e+00 5.979738712310791016e+00 -7.041229724884033203e+00 1.605579566955566406e+01
9.315361022949218750e+00 -3.482032775878906250e+00 8.495959281921386719e+00 -3.482032775878906250e+00 2.083687973022460938e+01 1.115207672119140625e+01 8.495959281921386719e+00 1.115207672119140625e+01 1.688652801513671875e+01
2.421626329421997070e+00 8.057213783264160156e+00 7.925871372222900391e+00 8.057213783264160156e+00 3.273902654647827148e+00 -3.074587583541870117e+00 7.925871372222900391e+00 -3.074587583541870117e+00 2.769781684875488281e+01
-1.689533424377441406e+01 6.511759757995605469e+00 9.421716690063476562e+00 6.511759757995605469e+00 9.099763870239257812e+00 -8.034420013427734375e+00 9.421716690063476562e+00 -8.034420013427734375e+00 2.650706672668457031e+01
1.681344985961914062e+01 3.042181253433227539e+00 -5.086738586425781250e+00 3.042181253433227539e+00 1.735314178466796875e+01 3.690408468246459961e+00 -5.086738586425781250e+00 3.690408468246459961e+00 2.540708351135253906e+01
-2.500730133056640625e+01 -1.212197780609130859e+01 1.424724960327148438e+01 -1.212197780609130859e+01 -1.130071544647216797e+01 -6.874595642089843750e+00 1.424724960327148438e+01 -6.874595642089843750e+00 1.972654151916503906e+01
2.146411132812500000e+01 2.243647098541259766e+00 8.006915092468261719e+00 2.243647098541259766e+00 3.501905059814453125e+01 7.956227302551269531e+00 8.006915092468261719e+00 7.956227302551269531e+00 5.003518295288085938e+01
-2.256947708129882812e+01 -6.513942718505859375e+00 5.033808231353759766e+00 -6.513942718505859375e+00 1.942999458312988281e+01 1.994783639907836914e+00 5.033808231353759766e+00 1.994783639907836914e+00 9.384516716003417969e+00
2.979522943496704102e+00 2.050229072570800781e+00 -8.328016281127929688e+00 2.050229072570800781e+00 1.215812587738037109e+01 -7.852995395660400391e-01 -8.328016281127929688e+00 -7.852995395660400391e-01 7.298412322998046875e+00
1.511798954010009766e+01 -1.524020290374755859e+01 6.798151969909667969e+00 -1.524020290374755859e+01 3.633808898925781250e+01 -9.513384103775024414e-01 6.798151969909667969e+00 -9.513384103775024414e-01 2.860988140106201172e+00
9.604436874389648438e+00 -1.093229103088378906e+01 -1.283339262008666992e+00 -1.093229103088378906e+01 1.899597549438476562e+01 8.964531898498535156e+00 -1.283339262008666992e+00 8.964531898498535156e+00 1.672311592102050781e+01
1.531455135345458984e+01 -2.406066656112670898e+00 1.196960330009460449e+00 -2.406066656112670898e+00 -4.812647819519042969e+00 1.061252403259277344e+01 1.196960330009460449e+00 1.061252403259277344e+01 1.360100841522216797e+01
-3.148481845855712891e-01 -1.045385822653770447e-01 4.468126296997070312e+00 -1.045385822653770447e-01 6.645090579986572266e+00 9.016878128051757812e+00 4.468126296997070312e+00 9.016878128051757812e+00 2.515728759765625000e+01
2.031316757202148438e+00 4.174818694591522217e-01 -2.995651245117187500e+00 4.174818694591522217e-01 6.898421764373779297e+00 -7.271810531616210938e+00 -2.995651245117187500e+00 -7.271810531616210938e+00 3.138477325439453125e+01
1.164784622192382812e+01 1.761825561523437500e+01 5.688481807708740234e+00 1.761825561523437500e+01 1.396217060089111328e+01 1.907475471496582031e+00 5.688481807708740234e+00 1.907475471496582031e+00 1.016950511932373047e+01
3.189388465881347656e+01 2.466410994529724121e-01 -9.095197319984436035e-01 2.466410994529724121e-01 2.172185897827148438e+01 -3.567229509353637695e+00 -9.095197319984436035e-01 -3.567229509353637695e+00 5.955181717872619629e-01
3.117586135864257812e+01 2.496109962463378906e+00 -3.813787460327148438e+00 2.496109962463378906e+00 2.228424263000488281e+01 -8.867342948913574219e+00 -3.813787460327148438e+00 -8.867342948913574219e+00 -1.406206130981445312e+01
-7.252738475799560547e+00 1.291504096984863281e+01 7.663080215454101562e+00 1.291504096984863281e+01 7.073400974273681641e+00 -5.035808563232421875e+00 7.663080215454101562e+00 -5.035808563232421875e+00 2.271759223937988281e+01
-1.091550731658935547e+01 -7.389686107635498047e+00 1.147635936737060547e+01 -7.389686107635498047e+00 8.050840377807617188e+00 -1.570925903320312500e+01 1.147635936737060547e+01 -1.570925903320312500e+01 3.281512832641601562e+01
2.243781471252441406e+01 -4.432927131652832031e+00 1.500115036964416504e+00 -4.432927131652832031e+00 2.002925872802734375e+01 1.194094467163085938e+01 1.500115036964416504e+00 1.194094467163085938e+01 3.554050207138061523e+00
3.247950363159179688e+01 -2.683294057846069336e+00 1.483075809478759766e+01 -2.683294057846069336e+00 6.873623847961425781e+00 5.928472995758056641e+00 1.483075809478759766e+01 5.928472995758056641e+00 1.055931568145751953e+00
1.312400341033935547e+01 -5.689075946807861328e+00 1.153337574005126953e+01 -5.689075946807861328e+00 4.193680286407470703e+00 9.519760131835937500e+00 1.153337574005126953e+01 9.519760131835937500e+00 2.491062164306640625e+01
5.599167823791503906e+00 1.454756975173950195e+00 1.105287075042724609e+01 1.454756975173950195e+00 1.962271690368652344e+01 6.020459651947021484e+00 1.105287075042724609e+01 6.020459651947021484e+00 3.531845474243164062e+01
1.474566078186035156e+01 3.315649330615997314e-01 -1.178308010101318359e+01 3.315649330615997314e-01 1.924836397171020508e+00 1.093622148036956787e-01 -1.178308010101318359e+01 1.093622148036956787e-01 6.945789813995361328e+00
1.225565719604492188e+01 -9.150442123413085938e+00 4.498017311096191406e+00 -9.150442123413085938e+00 2.255078887939453125e+01 8.311770558357238770e-01 4.498017311096191406e+00 8.311770558357238770e-01 8.198238372802734375e+00
1.816569900512695312e+01 -4.220077514648437500e+00 2.661544227600097656e+01 -4.220077514648437500e+00 1.704955482482910156e+01 4.245434761047363281e+00 2.661544227600097656e+01 4.245434761047363281e+00 2.205860137939453125e+01
-3.050851106643676758e+00 -1.260279560089111328e+01 -7.938093662261962891e+00 -1.260279560089111328e+01 9.414513587951660156e+00 3.157649755477905273e+00 -7.938093662261962891e+00 3.157649755477905273e+00 3.166059875488281250e+01
6.981791496276855469e+00 -4.150504589080810547e+00 3.168259620666503906e+00 -4.150504589080810547e+00 7.450923919677734375e+00 1.856249618530273438e+01 3.168259620666503906e+00 1.856249618530273438e+01 2.586630630493164062e+01
1.270642089843750000e+01 -1.484046339988708496e+00 1.139204025268554688e+01 -1.484046339988708496e+00 4.236147308349609375e+01 4.258445262908935547e+00 1.139204025268554688e+01 4.258445262908935547e+00 1.228835868835449219e+01
1.253777122497558594e+01 -2.258598327636718750e+00 1.197611045837402344e+01 -2.258598327636718750e+00 -5.894359588623046875e+00 -4.999636650085449219e+00 1.197611045837402344e+01 -4.999636650085449219e+00 1.233557987213134766e+01
1.033472061157226562e+01 1.510550022125244141e+00 5.874642729759216309e-01 1.510550022125244141e+00 7.331704616546630859e+00 4.022267162799835205e-01 5.874642729759216309e-01 4.022267162799835205e-01 1.953232955932617188e+01
3.385191345214843750e+01 2.962969541549682617e+00 -2.354636192321777344e+01 2.962969541549682617e+00 7.839617252349853516e+00 9.127257019281387329e-02 -2.354636192321777344e+01 9.127257019281387329e-02 3.014933204650878906e+01
4.993888854980468750e+00 -4.067816257476806641e+00 -1.890102386474609375e+00 -4.067816257476806641e+00 -4.280822753906250000e+00 -2.407080650329589844e+01 -1.890102386474609375e+00 -2.407080650329589844e+01 -6.913469314575195312e+00
3.476636886596679688e+01 -1.030526256561279297e+01 1.470102119445800781e+01 -1.030526256561279297e+01 3.334500122070312500e+01 -6.275650024414062500e+00 1.470102119445800781e+01 -6.275650024414062500e+00 2.741797637939453125e+01
1.517881202697753906e+01 -7.272801876068115234e+00 -5.636990547180175781e+00 -7.272801876068115234e+00 3.133011579513549805e+00 -7.607263565063476562e+00 -5.636990547180175781e+00 -7.607263565063476562e+00 7.222061157226562500e+00
7.543973445892333984e+00 4.859489440917968750e+00 7.758121490478515625e+00 4.859489440917968750e+00 1.529027843475341797e+01 9.823388099670410156e+00 7.758121490478515625e+00 9.823388099670410156e+00 1.984901785850524902e+00
7.236280441284179688e+00 -4.378151893615722656e+00 -1.440342783927917480e+00 -4.378151893615722656e+00 3.412323379516601562e+01 -5.344209194183349609e+00 -1.440342783927917480e+00 -5.344209194183349609e+00 1.086271476745605469e+01
1.477502346038818359e+01 -9.928443908691406250e+00 -6.660838127136230469e+00 -9.928443908691406250e+00 8.733856201171875000e+00 -5.814736843109130859e+00 -6.660838127136230469e+00 -5.814736843109130859e+00 2.265817642211914062e+01
-7.422146797180175781e+00 -8.867691993713378906e+00 9.522533416748046875e+00 -8.867691993713378906e+00 -9.725186228752136230e-01 1.344167709350585938e+00 9.522533416748046875e+00 1.344167709350585938e+00 8.426377296447753906e+00
2.197669029235839844e+01 -8.537542343139648438e+00 -4.568148612976074219e+00 -8.537542343139648438e+00 7.428439617156982422e+00 1.402886104583740234e+01 -4.568148612976074219e+00 1.402886104583740234e+01 2.294268417358398438e+01
5.565641880035400391e+00 1.160229325294494629e+00 -5.489953994750976562e+00 1.160229325294494629e+00 4.372008800506591797e+00 9.924131393432617188e+00 -5.489953994750976562e+00 9.924131393432617188e+00 1.959929466247558594e+01
7.741096973419189453e+00 -1.017019939422607422e+01 -4.844880104064941406e+00 -1.017019939422607422e+01 -3.988602399826049805e+00 3.781802892684936523e+00 -4.844880104064941406e+00 3.781802892684936523e+00 1.948918151855468750e+01
9.444444656372070312e+00 -1.006726932525634766e+01 -8.056344985961914062e+00 -1.006726932525634766e+01 1.705620574951171875e+01 3.510199308395385742e+00 -8.056344985961914062e+00 3.510199308395385742e+00 -3.476805448532104492e+00
2.562364387512207031e+01 -6.175714969635009766e+00 1.880116462707519531e+00 -6.175714969635009766e+00 7.913022041320800781e+00 5.024954319000244141e+00 1.880116462707519531e+00 5.024954319000244141e+00 2.446003341674804688e+01
1.276228523254394531e+01 -4.193072319030761719e+00 -1.431732940673828125e+01 -4.193072319030761719e+00 3.709279632568359375e+01 -1.169502162933349609e+01 -1.431732940673828125e+01 -1.169502162933349609e+01 7.704034805297851562e+00
7.856352329254150391e+00 -7.545663356781005859e+00 2.089429378509521484e+00 -7.545663356781005859e+00 8.856420516967773438e+00 -2.306056499481201172e+00 2.089429378509521484e+00 -2.306056499481201172e+00 4.547780990600585938e+00
1.691081809997558594e+01 2.067771911621093750e+00 -8.168455123901367188e+00 2.067771911621093750e+00 1.112376976013183594e+01 -8.058286666870117188e+00 -8.168455123901367188e+00 -8.058286666870117188e+00 4.950150489807128906e+00
1.205748558044433594e+01 -1.072724461555480957e+00 -8.068226814270019531e+00 -1.072724461555480957e+00 -2.570615291595458984e+00 -8.054676055908203125e+00 -8.068226814270019531e+00 -8.054676055908203125e+00 -5.189728736877441406e+00
2.250634956359863281e+01 -1.392731189727783203e+01 -9.095580101013183594e+00 -1.392731189727783203e+01 3.446504974365234375e+01 -6.715360641479492188e+00 -9.095580101013183594e+00 -6.715360641479492188e+00 1.629901313781738281e+01
2.989879608154296875e+00 -2.168807029724121094e+00 -1.329873371124267578e+01 -2.168807029724121094e+00 -2.085711479187011719e+01 -8.756960868835449219e+00 -1.329873371124267578e+01 -8.756960868835449219e+00 -1.888535499572753906e+01
4.304890060424804688e+01 -8.026641845703125000e+00 8.671968460083007812e+00 -8.026641845703125000e+00 1.476391887664794922e+01 -5.910772681236267090e-01 8.671968460083007812e+00 -5.910772681236267090e-01 2.120896339416503906e+01
1.551589298248291016e+01 4.179299250245094299e-02 9.338246345520019531e+00 4.179299250245094299e-02 2.104003334045410156e+01 1.004774570465087891e+01 9.338246345520019531e+00 1.004774570465087891e+01 1.083858966827392578e+01
5.103861618041992188e+01 -2.936550378799438477e+00 -7.164284706115722656e+00 -2.936550378799438477e+00 2.242891120910644531e+01 -6.617217540740966797e+00 -7.164284706115722656e+00 -6.617217540740966797e+00 3.100197410583496094e+01
-7.787633419036865234e+00 1.330449867248535156e+01 -1.206346869468688965e+00 1.330449867248535156e+01 -2.349570465087890625e+01 -1.011912441253662109e+01 -1.206346869468688965e+00 -1.011912441253662109e+01 -2.772925949096679688e+01
3.299569320678710938e+01 5.754922389984130859e+00 -4.605978965759277344e+00 5.754922389984130859e+00 2.236236000061035156e+01 -1.675751113891601562e+01 -4.605978965759277344e+00 -1.675751113891601562e+01 2.080375862121582031e+01
2.534719085693359375e+01 -1.554987525939941406e+01 1.859011054039001465e+00 -1.554987525939941406e+01 1.210242557525634766e+01 1.044865131378173828e+01 1.859011054039001465e+00 1.044865131378173828e+01 7.186275482177734375e+00
4.201912689208984375e+01 -1.547549533843994141e+01 -8.683053970336914062e+00 -1.547549533843994141e+01 9.428638458251953125e+00 9.740446090698242188e+00 -8.683053970336914062e+00 9.740446090698242188e+00 1.893035697937011719e+01
7.400903701782226562e+00 -1.431395626068115234e+01 -5.445842742919921875e+00 -1.431395626068115234e+01 2.114723777770996094e+01 -1.237230587005615234e+01 -5.445842742919921875e+00 -1.237230587005615234e+01 -1.642646193504333496e+00
4.025910949707031250e+01 -4.111464023590087891e+00 1.196811771392822266e+01 -4.111464023590087891e+00 3.072520256042480469e+01 1.529584789276123047e+01 1.196811771392822266e+01 1.529584789276123047e+01 9.443612098693847656e-01
7.281439304351806641e+00 -1.643499374389648438e+01 -2.683069610595703125e+01 -1.643499374389648438e+01 -2.290506362915039062e+01 -1.535253810882568359e+01 -2.683069610595703125e+01 -1.535253810882568359e+01 -2.497329139709472656e+01
2.347477149963378906e+01 4.651382923126220703e+00 9.059206962585449219e+00 4.651382923126220703e+00 -5.453765392303466797e+00 -8.147438049316406250e+00 9.059206962585449219e+00 -8.147438049316406250e+00 2.834133338928222656e+01
8.854286193847656250e+00 1.253898429870605469e+01 4.577808856964111328e+00 1.253898429870605469e+01 2.226923942565917969e+01 2.451972246170043945e+00 4.577808856964111328e+00 2.451972246170043945e+00 -1.832448387145996094e+01
-6.698346883058547974e-02 1.947677493095397949e+00 -1.923485946655273438e+01 1.947677493095397949e+00 1.135452175140380859e+01 -7.870713233947753906e+00 -1.923485946655273438e+01 -7.870713233947753906e+00 1.341366291046142578e+01
2.123292922973632812e+01 8.692153930664062500e+00 -8.117388725280761719e+00 8.692153930664062500e+00 7.947555065155029297e+00 2.976076364517211914e+00 -8.117388725280761719e+00 2.976076364517211914e+00 1.336551761627197266e+01
7.019056797027587891e+00 9.765280723571777344e+00 -7.876122951507568359e+00 9.765280723571777344e+00 -5.734032630920410156e+00 -1.694214248657226562e+01 -7.876122951507568359e+00 -1.694214248657226562e+01 -6.193129062652587891e+00
3.868709564208984375e+01 2.447124242782592773e+00 -2.171336889266967773e+00 2.447124242782592773e+00 1.995298576354980469e+01 -3.897201061248779297e+00 -2.171336889266967773e+00 -3.897201061248779297e+00 2.268705177307128906e+01
-3.318862676620483398e+00 1.881463885307312012e+00 4.030186235904693604e-01 1.881463885307312012e+00 2.630494308471679688e+01 -4.347329139709472656e+00 4.030186235904693604e-01 -4.347329139709472656e+00 4.172007083892822266e+00
1.213930320739746094e+01 2.787259340286254883e+00 -2.354824781417846680e+00 2.787259340286254883e+00 3.782249450683593750e+01 -9.943427085876464844e+00 -2.354824781417846680e+00 -9.943427085876464844e+00 4.914930820465087891e+00
5.358963966369628906e+00 -6.051843643188476562e+00 1.069592189788818359e+01 -6.051843643188476562e+00 2.112053489685058594e+01 -1.863674736022949219e+01 1.069592189788818359e+01 -1.863674736022949219e+01 8.167389869689941406e+00
4.532621002197265625e+01 -1.866980552673339844e+01 -1.344607543945312500e+01 -1.866980552673339844e+01 4.011601257324218750e+01 -2.276374101638793945e+00 -1.344607543945312500e+01 -2.276374101638793945e+00 2.832825279235839844e+01
1.213359642028808594e+01 -2.964996814727783203e+00 -1.264066886901855469e+01 -2.964996814727783203e+00 2.213795185089111328e+00 7.748600006103515625e+00 -1.264066886901855469e+01 7.748600006103515625e+00 1.416019344329833984e+01
3.393851280212402344e+00 -1.403143048286437988e+00 -5.254020690917968750e+00 -1.403143048286437988e+00 2.710648775100708008e+00 -7.572926521301269531e+00 -5.254020690917968750e+00 -7.572926521301269531e+00 2.280023956298828125e+01
2.647987556457519531e+01 -8.703247070312500000e+00 -5.012974739074707031e+00 -8.703247070312500000e+00 2.705997276306152344e+01 5.144856929779052734e+00 -5.012974739074707031e+00 5.144856929779052734e+00 2.950525283813476562e+01
-1.203931212425231934e+00 -9.062784910202026367e-01 2.340366744995117188e+01 -9.062784910202026367e-01 8.366762161254882812e+00 2.176394462585449219e+00 2.340366744995117188e+01 2.176394462585449219e+00 1.854669332504272461e+00
1.164956855773925781e+01 -6.525687575340270996e-01 -3.942845582962036133e+00 -6.525687575340270996e-01 5.096842575073242188e+01 8.840442657470703125e+00 -3.942845582962036133e+00 8.840442657470703125e+00 1.559889197349548340e+00
1.968330001831054688e+01 1.457355499267578125e+01 1.026145362854003906e+01 1.457355499267578125e+01 2.271631050109863281e+01 -8.894307136535644531e+00 1.026145362854003906e+01 -8.894307136535644531e+00 -3.423511505126953125e+00
1.307676410675048828e+01 5.704002857208251953e+00 -5.845942974090576172e+00 5.704002857208251953e+00 2.709659385681152344e+01 -2.674981355667114258e-01 -5.845942974090576172e+00 -2.674981355667114258e-01 2.967379570007324219e+00
3.096842002868652344e+01 -9.349401473999023438e+00 -2.765715360641479492e+00 -9.349401473999023438e+00 1.886307525634765625e+01 -3.834985494613647461e+00 -2.765715360641479492e+00 -3.834985494613647461e+00 2.442007446289062500e+01
8.683632850646972656e+00 -1.208866882324218750e+01 1.500421524047851562e+01 -1.208866882324218750e+01 1.526287078857421875e+01 1.729836702346801758e+00 1.500421524047851562e+01 1.729836702346801758e+00 1.847569942474365234e+00
4.754625701904296875e+01 1.440746784210205078e+01 4.398910045623779297e+00 1.440746784210205078e+01 3.393147659301757812e+01 -2.619593858718872070e+00 4.398910045623779297e+00 -2.619593858718872070e+00 4.197110366821289062e+01
1.226505661010742188e+01 2.126217269897460938e+01 6.497817516326904297e+00 2.126217269897460938e+01 3.106286048889160156e+00 -5.116841793060302734e+00 6.497817516326904297e+00 -5.116841793060302734e+00 -1.421108341217041016e+01
2.356342887878417969e+01 -8.268334388732910156e+00 1.944561243057250977e+00 -8.268334388732910156e+00 1.762378883361816406e+01 -7.629384517669677734e+00 1.944561243057250977e+00 -7.629384517669677734e+00 -1.206254601478576660e+00
2.094214630126953125e+01 -5.842340946197509766e+00 4.128515720367431641e+00 -5.842340946197509766e+00 3.216453933715820312e+01 8.925727844238281250e+00 4.128515720367431641e+00 8.925727844238281250e+00 3.407124710083007812e+01