-6.069317187500000000e+04
-6.068426562500000000e+04
-6.068429296875000000e+04
-6.068127734375000000e+04
-6.068160937500000000e+04
-6.068067968750000000e+04
-6.068080078125000000e+04
-6.068205468750000000e+04
-6.068158203125000000e+04
-6.068275781250000000e+04
-6.068216796875000000e+04
-6.068129687500000000e+04
-6.068292187500000000e+04
-6.068274609375000000e+04
-6.068233203125000000e+04
-6.068261328125000000e+04
-6.067791406250000000e+04
-6.068179296875000000e+04
-6.068184375000000000e+04
-6.068230859375000000e+04
-6.068215625000000000e+04
-6.068190234375000000e+04
-6.068258203125000000e+04
-6.068198437500000000e+04
-6.068213281250000000e+04
-6.068331640625000000e+04
-6.068232421875000000e+04
-6.068313281250000000e+04
-6.068339843750000000e+04
-6.068397656250000000e+04
-6.068227734375000000e+04
-6.068325781250000000e+04
-6.068176953125000000e+04
-6.068200000000000000e+04
-6.068220703125000000e+04
-6.068198046875000000e+04
-6.068330078125000000e+04
-6.068206640625000000e+04
-6.068053906250000000e+04
-6.068148046875000000e+04
-6.068201953125000000e+04
-6.068211718750000000e+04
-6.068198828125000000e+04
-6.068219531250000000e+04
-6.068099218750000000e+04
-6.069317187500000000e+04
-6.067656640625000000e+04
-6.067645703125000000e+04
-6.067243750000000000e+04
-6.066811718750000000e+04
-6.066530468750000000e+04
-6.066501171875000000e+04
-6.066553515625000000e+04
-6.066617187500000000e+04
-6.066731250000000000e+04
-6.066791406250000000e+04
-6.066556250000000000e+04
-6.066707421875000000e+04
-6.066570312500000000e+04
-6.066699218750000000e+04
-6.066740234375000000e+04
-6.066525390625000000e+04
-6.066800781250000000e+04
-6.066514453125000000e+04
-6.065886718750000000e+04
-6.066306250000000000e+04
-6.066521484375000000e+04
-6.066663281250000000e+04
-6.066442578125000000e+04
-6.066289062500000000e+04
-6.066437500000000000e+04
-6.066586718750000000e+04
-6.066574218750000000e+04
-6.066707421875000000e+04
-6.066701171875000000e+04
-6.066564843750000000e+04
-6.066603515625000000e+04
-6.066618359375000000e+04
-6.066690625000000000e+04
-6.066547656250000000e+04
-6.066710937500000000e+04
-6.066804687500000000e+04
-6.066200390625000000e+04
-6.066601171875000000e+04
-6.066346093750000000e+04
-6.066519921875000000e+04
-6.066538281250000000e+04
-6.066827343750000000e+04
-6.066389453125000000e+04
-6.066468750000000000e+04
-6.066434375000000000e+04
-6.066500000000000000e+04
-6.066512109375000000e+04
-6.069317187500000000e+04
-6.066462109375000000e+04
-6.066160546875000000e+04
-6.065651562500000000e+04
-6.064769140625000000e+04
-6.064766406250000000e+04
-6.064165234375000000e+04
-6.063955468750000000e+04
-6.064066015625000000e+04
-6.064366406250000000e+04
-6.064367578125000000e+04
-6.064574218750000000e+04
-6.064584375000000000e+04
-6.064124609375000000e+04
-6.064008984375000000e+04
-6.064247656250000000e+04
-6.064062109375000000e+04
-6.064303906250000000e+04
-6.063970312500000000e+04
-6.063654296875000000e+04
-6.063808984375000000e+04
-6.063920703125000000e+04
-6.063901171875000000e+04
-6.063970312500000000e+04
-6.063630078125000000e+04
-6.063652343750000000e+04
-6.064112500000000000e+04
-6.064076171875000000e+04
-6.064257421875000000e+04
-6.063950000000000000e+04
-6.063833203125000000e+04
-6.063727734375000000e+04
-6.064052343750000000e+04
-6.064471484375000000e+04
-6.064556640625000000e+04
-6.064394531250000000e+04
-6.063967968750000000e+04
-6.063866015625000000e+04
-6.064004296875000000e+04
-6.064040625000000000e+04
-6.064142187500000000e+04
-6.064194531250000000e+04
-6.064243750000000000e+04
-6.064010937500000000e+04
-6.069371093750000000e+04
-6.068442578125000000e+04
-6.068327734375000000e+04
-6.068286718750000000e+04
-6.068066796875000000e+04
-6.067971484375000000e+04
-6.068007031250000000e+04
-6.068184765625000000e+04
-6.068257812500000000e+04
-6.068105859375000000e+04
-6.068049609375000000e+04
-6.068053515625000000e+04
-6.068175781250000000e+04
-6.068167578125000000e+04
-6.068091015625000000e+04
-6.068053515625000000e+04
-6.068167968750000000e+04
-6.068030859375000000e+04
-6.068198046875000000e+04
-6.068068359375000000e+04
-6.068196484375000000e+04
-6.068221093750000000e+04
-6.068114062500000000e+04
-6.068169531250000000e+04
-6.068150000000000000e+04
-6.068220312500000000e+04
-6.068094531250000000e+04
-6.068207421875000000e+04
-6.068137500000000000e+04
-6.068014062500000000e+04
-6.067989062500000000e+04
-6.068203906250000000e+04
-6.068174218750000000e+04
-6.068227343750000000e+04
-6.068199218750000000e+04
-6.068128515625000000e+04
-6.068171484375000000e+04
-6.068202343750000000e+04
-6.068245312500000000e+04
-6.068122265625000000e+04
-6.068121093750000000e+04
-6.068108593750000000e+04
-6.068171875000000000e+04
-6.068159765625000000e+04
-6.068041015625000000e+04
-6.068021093750000000e+04
-6.068120312500000000e+04
-6.069371093750000000e+04
-6.067711328125000000e+04
-6.067408593750000000e+04
-6.067207031250000000e+04
-6.066745703125000000e+04
-6.066601953125000000e+04
-6.066677734375000000e+04
-6.066665234375000000e+04
-6.066856640625000000e+04
-6.066657421875000000e+04
-6.066693359375000000e+04
-6.066661718750000000e+04
-6.066552343750000000e+04
-6.066496484375000000e+04
-6.066409765625000000e+04
-6.066547265625000000e+04
-6.066617968750000000e+04
-6.066349218750000000e+04
-6.066306250000000000e+04
-6.066700390625000000e+04
-6.066539453125000000e+04
-6.066641796875000000e+04
-6.066442968750000000e+04
-6.066628515625000000e+04
-6.066550390625000000e+04
-6.066523046875000000e+04
-6.066661328125000000e+04
-6.066388671875000000e+04
-6.066762890625000000e+04
-6.066932421875000000e+04
-6.066767968750000000e+04
-6.066713281250000000e+04
-6.066692968750000000e+04
-6.066713281250000000e+04
-6.066795312500000000e+04
-6.066712890625000000e+04
-6.066559375000000000e+04
-6.066567968750000000e+04
-6.066603515625000000e+04
-6.066773828125000000e+04
-6.066707421875000000e+04
-6.066496875000000000e+04
-6.066434765625000000e+04
-6.066490234375000000e+04
-6.069371093750000000e+04
-6.066912890625000000e+04
-6.066794531250000000e+04
-6.066127343750000000e+04
-6.065806250000000000e+04
-6.064344531250000000e+04
-6.064189062500000000e+04
-6.064429687500000000e+04
-6.064642578125000000e+04
-6.064916406250000000e+04
-6.064597265625000000e+04
-6.064351171875000000e+04
-6.064334375000000000e+04
-6.064639453125000000e+04
-6.064618359375000000e+04
-6.064012890625000000e+04
-6.063661328125000000e+04
-6.063989843750000000e+04
-6.064120703125000000e+04
-6.064145312500000000e+04
-6.064119531250000000e+04
-6.064015625000000000e+04
-6.063985546875000000e+04
-6.063998828125000000e+04
-6.064187109375000000e+04
-6.064534765625000000e+04
-6.064455078125000000e+04
-6.064569140625000000e+04
-6.064242187500000000e+04
-6.064281250000000000e+04
-6.063806640625000000e+04
-6.064103515625000000e+04
-6.063932031250000000e+04
-6.063875000000000000e+04
-6.063701562500000000e+04
-6.063271093750000000e+04
-6.063742578125000000e+04
-6.063633203125000000e+04
-6.063828906250000000e+04
-6.063892578125000000e+04
-6.063712109375000000e+04
-6.063716796875000000e+04
-6.063296875000000000e+04
-6.069317968750000000e+04
-6.068396093750000000e+04
-6.068239843750000000e+04
-6.068166406250000000e+04
-6.068211718750000000e+04
-6.068017968750000000e+04
-6.068135546875000000e+04
-6.068146093750000000e+04
-6.068174609375000000e+04
-6.068158203125000000e+04
-6.068108203125000000e+04
-6.067998828125000000e+04
-6.068063671875000000e+04
-6.068082812500000000e+04
-6.068141406250000000e+04
-6.068073437500000000e+04
-6.068036328125000000e+04
-6.068084765625000000e+04
-6.068104296875000000e+04
-6.068226953125000000e+04
-6.068189062500000000e+04
-6.068121875000000000e+04
-6.068139843750000000e+04
-6.067953515625000000e+04
-6.068032421875000000e+04
-6.068091015625000000e+04
-6.068162890625000000e+04
-6.068133984375000000e+04
-6.068155859375000000e+04
-6.068133984375000000e+04
-6.068045312500000000e+04
-6.068019140625000000e+04
-6.068048046875000000e+04
-6.068048437500000000e+04
-6.068153125000000000e+04
-6.068121875000000000e+04
-6.068184375000000000e+04
-6.068095703125000000e+04
-6.068058203125000000e+04
-6.068097265625000000e+04
-6.068091406250000000e+04
-6.068152734375000000e+04
-6.068169531250000000e+04
-6.068169531250000000e+04
-6.068101171875000000e+04
-6.067830468750000000e+04
-6.068098828125000000e+04
-6.068000000000000000e+04
-6.068044531250000000e+04
-6.068056640625000000e+04
-6.069317968750000000e+04
-6.067432421875000000e+04
-6.067194531250000000e+04
-6.066830078125000000e+04
-6.066625390625000000e+04
-6.066711718750000000e+04
-6.066684765625000000e+04
-6.066683203125000000e+04
-6.066569921875000000e+04
-6.066497656250000000e+04
-6.066511718750000000e+04
-6.066608593750000000e+04
-6.066646484375000000e+04
-6.066502343750000000e+04
-6.066678906250000000e+04
-6.066722265625000000e+04
-6.066632421875000000e+04
-6.066571875000000000e+04
-6.066375781250000000e+04
-6.066553125000000000e+04
-6.065997265625000000e+04
-6.066537109375000000e+04
-6.066533984375000000e+04
-6.066548046875000000e+04
-6.066372265625000000e+04
-6.066361328125000000e+04
-6.066396093750000000e+04
-6.066553125000000000e+04
-6.066566796875000000e+04
-6.066397656250000000e+04
-6.066289843750000000e+04
-6.066121875000000000e+04
-6.066387890625000000e+04
-6.066413671875000000e+04
-6.066679687500000000e+04
-6.066508984375000000e+04
-6.066449218750000000e+04
-6.065948437500000000e+04
-6.066125390625000000e+04
-6.066253906250000000e+04
-6.066317187500000000e+04
-6.066315625000000000e+04
-6.066442578125000000e+04
-6.066517187500000000e+04
-6.069317968750000000e+04
-6.066803515625000000e+04
-6.066533203125000000e+04
-6.065993359375000000e+04
-6.065307812500000000e+04
-6.065212500000000000e+04
-6.064788281250000000e+04
-6.064781250000000000e+04
-6.064299218750000000e+04
-6.064392968750000000e+04
-6.064374218750000000e+04
-6.064236718750000000e+04
-6.063767968750000000e+04
-6.063791406250000000e+04
-6.063939062500000000e+04
-6.064120312500000000e+04
-6.064066406250000000e+04
-6.064473828125000000e+04
-6.063987109375000000e+04
-6.064200390625000000e+04
-6.064538671875000000e+04
-6.064617578125000000e+04
-6.064423046875000000e+04
-6.063887890625000000e+04
-6.063574609375000000e+04
-6.063650781250000000e+04
-6.063808593750000000e+04
-6.063937109375000000e+04
-6.064263671875000000e+04
-6.064078515625000000e+04
-6.064029687500000000e+04
-6.064075781250000000e+04
-6.064190234375000000e+04
-6.064090234375000000e+04
-6.064075781250000000e+04
-6.063837890625000000e+04
-6.063908203125000000e+04
-6.063601562500000000e+04
-6.063760156250000000e+04
-6.069245312500000000e+04
-6.068355468750000000e+04
-6.068298437500000000e+04
-6.068214453125000000e+04
-6.068087890625000000e+04
-6.068111718750000000e+04
-6.068067187500000000e+04
-6.068110937500000000e+04
-6.068208203125000000e+04
-6.067847265625000000e+04
-6.067975000000000000e+04
-6.068003125000000000e+04
-6.068071484375000000e+04
-6.068108593750000000e+04
-6.068071484375000000e+04
-6.067702734375000000e+04
-6.068122265625000000e+04
-6.068193750000000000e+04
-6.068048828125000000e+04
-6.068005468750000000e+04
-6.067933593750000000e+04
-6.068030078125000000e+04
-6.068046484375000000e+04
-6.068102343750000000e+04
-6.068180078125000000e+04
-6.068238281250000000e+04
-6.068023828125000000e+04
-6.068076171875000000e+04
-6.068157031250000000e+04
-6.068207812500000000e+04
-6.068191015625000000e+04
-6.068207421875000000e+04
-6.068169921875000000e+04
-6.068162500000000000e+04
-6.068189453125000000e+04
-6.068189843750000000e+04
-6.068164843750000000e+04
-6.068059375000000000e+04
-6.068094140625000000e+04
-6.068105859375000000e+04
-6.068272265625000000e+04
-6.068304687500000000e+04
-6.068142187500000000e+04
-6.068218359375000000e+04
-6.068064062500000000e+04
-6.068153906250000000e+04
-6.068124218750000000e+04
-6.069245312500000000e+04
-6.067574218750000000e+04
-6.067318359375000000e+04
-6.066839843750000000e+04
-6.066717187500000000e+04
-6.066626171875000000e+04
-6.066750000000000000e+04
-6.066619140625000000e+04
-6.066699218750000000e+04
-6.066863281250000000e+04
-6.066591015625000000e+04
-6.066841796875000000e+04
-6.066651562500000000e+04
-6.066629296875000000e+04
-6.066786718750000000e+04
-6.066708203125000000e+04
-6.066533203125000000e+04
-6.066741796875000000e+04
-6.066644140625000000e+04
-6.066691406250000000e+04
-6.066887109375000000e+04
-6.066456640625000000e+04
-6.066314453125000000e+04
-6.066669140625000000e+04
-6.066684375000000000e+04
-6.066793359375000000e+04
-6.066796093750000000e+04
-6.066437890625000000e+04
-6.066269921875000000e+04
-6.066117187500000000e+04
-6.066125390625000000e+04
-6.066539062500000000e+04
-6.066323437500000000e+04
-6.066608203125000000e+04
-6.066494140625000000e+04
-6.066622656250000000e+04
-6.066476562500000000e+04
-6.066280078125000000e+04
-6.066391406250000000e+04
-6.066460546875000000e+04
-6.066671484375000000e+04
-6.066458203125000000e+04
-6.066324218750000000e+04
-6.066595312500000000e+04
-6.066373828125000000e+04
-6.066370312500000000e+04
-6.066309375000000000e+04
-6.069245312500000000e+04
-6.066892187500000000e+04
-6.066425000000000000e+04
-6.065794531250000000e+04
-6.065491015625000000e+04
-6.065218359375000000e+04
-6.064572656250000000e+04
-6.064594921875000000e+04
-6.064251953125000000e+04
-6.064551171875000000e+04
-6.064719921875000000e+04
-6.064109375000000000e+04
-6.064367187500000000e+04
-6.064253515625000000e+04
-6.064220703125000000e+04
-6.064178906250000000e+04
-6.064050781250000000e+04
-6.063885937500000000e+04
-6.064166015625000000e+04
-6.063790625000000000e+04
-6.064462500000000000e+04
-6.064351953125000000e+04
-6.064371093750000000e+04
-6.064373437500000000e+04
-6.063899218750000000e+04
-6.063574218750000000e+04
-6.064078515625000000e+04
-6.063932812500000000e+04
-6.064146875000000000e+04
-6.064040234375000000e+04
-6.064176562500000000e+04
-6.063851953125000000e+04
-6.063435546875000000e+04
-6.064071875000000000e+04
-6.064140625000000000e+04
-6.064310546875000000e+04
-6.064077343750000000e+04
-6.063848437500000000e+04
-6.063830078125000000e+04
-6.064201171875000000e+04
-6.064264843750000000e+04
-6.064107421875000000e+04
-6.064051171875000000e+04
-6.064308203125000000e+04
-6.064078906250000000e+04
-6.064200781250000000e+04
-6.064173437500000000e+04
-6.069468359375000000e+04
-6.068532421875000000e+04
-6.068365234375000000e+04
-6.068159375000000000e+04
-6.068281250000000000e+04
-6.068093359375000000e+04
-6.068390625000000000e+04
-6.068194531250000000e+04
-6.068358203125000000e+04
-6.068268750000000000e+04
-6.068298046875000000e+04
-6.068165625000000000e+04
-6.068246484375000000e+04
-6.068156640625000000e+04
-6.068263281250000000e+04
-6.068384765625000000e+04
-6.068263671875000000e+04
-6.068289453125000000e+04
-6.068281640625000000e+04
-6.068182421875000000e+04
-6.068261328125000000e+04
-6.068260156250000000e+04
-6.068198437500000000e+04
-6.068160937500000000e+04
-6.068103906250000000e+04
-6.068249218750000000e+04
-6.068354296875000000e+04
-6.068243750000000000e+04
-6.068183984375000000e+04
-6.068203906250000000e+04
-6.068202734375000000e+04
-6.068194531250000000e+04
-6.068283203125000000e+04
-6.068214453125000000e+04
-6.068223437500000000e+04
-6.068192187500000000e+04
-6.068181250000000000e+04
-6.068159375000000000e+04
-6.068265234375000000e+04
-6.068222656250000000e+04
-6.068276171875000000e+04
-6.068179296875000000e+04
-6.068102343750000000e+04
-6.068139453125000000e+04
-6.068251953125000000e+04
-6.068248046875000000e+04
-6.068241015625000000e+04
-6.068195312500000000e+04
-6.068241406250000000e+04
-6.069468359375000000e+04
-6.067803125000000000e+04
-6.067751953125000000e+04
-6.067376953125000000e+04
-6.067065234375000000e+04
-6.066837500000000000e+04
-6.066719921875000000e+04
-6.066655468750000000e+04
-6.066711328125000000e+04
-6.066939062500000000e+04
-6.066770312500000000e+04
-6.066771093750000000e+04
-6.066464843750000000e+04
-6.066633203125000000e+04
-6.066668359375000000e+04
-6.066709375000000000e+04
-6.066700390625000000e+04
-6.066776953125000000e+04
-6.066296875000000000e+04
-6.066709765625000000e+04
-6.066532421875000000e+04
-6.066723828125000000e+04
-6.066308984375000000e+04
-6.066519531250000000e+04
-6.066594140625000000e+04
-6.066543750000000000e+04
-6.066392968750000000e+04
-6.066615234375000000e+04
-6.066231640625000000e+04
-6.066380078125000000e+04
-6.066271093750000000e+04
-6.066345703125000000e+04
-6.066577343750000000e+04
-6.066839843750000000e+04
-6.066446875000000000e+04
-6.066549218750000000e+04
-6.066591406250000000e+04
-6.066573828125000000e+04
-6.069468359375000000e+04
-6.066591015625000000e+04
-6.066712109375000000e+04
-6.066105468750000000e+04
-6.065500390625000000e+04
-6.065412890625000000e+04
-6.065024218750000000e+04
-6.064598437500000000e+04
-6.064480859375000000e+04
-6.064866406250000000e+04
-6.065244531250000000e+04
-6.064777734375000000e+04
-6.065027343750000000e+04
-6.064655078125000000e+04
-6.064307031250000000e+04
-6.064775000000000000e+04
-6.064261328125000000e+04
-6.064301953125000000e+04
-6.064119140625000000e+04
-6.064134765625000000e+04
-6.063792578125000000e+04
-6.063917968750000000e+04
-6.064107031250000000e+04
-6.063828515625000000e+04
-6.064275000000000000e+04
-6.064690234375000000e+04
-6.064675781250000000e+04
-6.064404296875000000e+04
-6.064133593750000000e+04
-6.063938281250000000e+04
-6.063943750000000000e+04
-6.064376562500000000e+04
-6.063768359375000000e+04
-6.063476953125000000e+04
-6.063712500000000000e+04
-6.063576562500000000e+04
-6.063742968750000000e+04
-6.063832812500000000e+04
-6.063595703125000000e+04
-6.063505859375000000e+04
-6.063336328125000000e+04
-6.069146875000000000e+04
-6.068265625000000000e+04
-6.068232812500000000e+04
-6.068247656250000000e+04
-6.068125390625000000e+04
-6.068032031250000000e+04
-6.068178515625000000e+04
-6.068175781250000000e+04
-6.068201953125000000e+04
-6.068094921875000000e+04
-6.067962890625000000e+04
-6.068135546875000000e+04
-6.068138281250000000e+04
-6.068129687500000000e+04
-6.068127734375000000e+04
-6.068062109375000000e+04
-6.068042187500000000e+04
-6.068119531250000000e+04
-6.068143750000000000e+04
-6.068221093750000000e+04
-6.068184375000000000e+04
-6.068077343750000000e+04
-6.068174609375000000e+04
-6.068035156250000000e+04
-6.068144140625000000e+04
-6.068076171875000000e+04
-6.068189062500000000e+04
-6.068120312500000000e+04
-6.067985546875000000e+04
-6.068117968750000000e+04
-6.068108984375000000e+04
-6.068243750000000000e+04
-6.068205078125000000e+04
-6.068245312500000000e+04
-6.068289843750000000e+04
-6.068168359375000000e+04
-6.068195703125000000e+04
-6.068109375000000000e+04
-6.068153515625000000e+04
-6.068210546875000000e+04
-6.068201171875000000e+04
-6.068091406250000000e+04
-6.067963671875000000e+04
-6.068098046875000000e+04
-6.068226171875000000e+04
-6.068124609375000000e+04
-6.068081250000000000e+04
-6.069146875000000000e+04
-6.067491796875000000e+04
-6.067239843750000000e+04
-6.067217187500000000e+04
-6.066829687500000000e+04
-6.066758984375000000e+04
-6.066762890625000000e+04
-6.066910546875000000e+04
-6.066867968750000000e+04
-6.066763671875000000e+04
-6.066694531250000000e+04
-6.066744921875000000e+04
-6.066726171875000000e+04
-6.066704296875000000e+04
-6.066715625000000000e+04
-6.066507031250000000e+04
-6.066347265625000000e+04
-6.066442578125000000e+04
-6.066388671875000000e+04
-6.066600000000000000e+04
-6.066746484375000000e+04
-6.066312500000000000e+04
-6.066498437500000000e+04
-6.066583203125000000e+04
-6.066310937500000000e+04
-6.066478906250000000e+04
-6.066525781250000000e+04
-6.066442187500000000e+04
-6.066555468750000000e+04
-6.066435937500000000e+04
-6.066498437500000000e+04
-6.066550000000000000e+04
-6.066425781250000000e+04
-6.066427734375000000e+04
-6.066173828125000000e+04
-6.066425781250000000e+04
-6.066208984375000000e+04
-6.066341406250000000e+04
-6.066309375000000000e+04
-6.066287109375000000e+04
-6.066498437500000000e+04
-6.066446093750000000e+04
-6.066542578125000000e+04
-6.066641796875000000e+04
-6.066436718750000000e+04
-6.069146875000000000e+04
-6.066707812500000000e+04
-6.066731640625000000e+04
-6.065759375000000000e+04
-6.065585546875000000e+04
-6.065056250000000000e+04
-6.064675781250000000e+04
-6.064178515625000000e+04
-6.063917578125000000e+04
-6.064091406250000000e+04
-6.064252343750000000e+04
-6.064512109375000000e+04
-6.064386718750000000e+04
-6.064286718750000000e+04
-6.064162500000000000e+04
-6.064025781250000000e+04
-6.064296484375000000e+04
-6.064357812500000000e+04
-6.064200390625000000e+04
-6.064239843750000000e+04
-6.063873828125000000e+04
-6.063923828125000000e+04
-6.064031640625000000e+04
-6.064309765625000000e+04
-6.064068359375000000e+04
-6.064154296875000000e+04
-6.063957812500000000e+04
-6.064025390625000000e+04
-6.064053125000000000e+04
-6.064074609375000000e+04
-6.063728906250000000e+04
-6.063671484375000000e+04
-6.063557031250000000e+04
-6.063937890625000000e+04
-6.064080859375000000e+04
-6.063920312500000000e+04
-6.063958593750000000e+04
-6.063476171875000000e+04
-6.063598437500000000e+04
-6.063891015625000000e+04
-6.063776562500000000e+04
-6.064153906250000000e+04
-6.063700000000000000e+04
-6.063455468750000000e+04
-6.063040234375000000e+04
-6.063648828125000000e+04
-6.069343359375000000e+04
-6.068387500000000000e+04
-6.068359375000000000e+04
-6.068188671875000000e+04
-6.068170312500000000e+04
-6.068070312500000000e+04
-6.068068750000000000e+04
-6.068124609375000000e+04
-6.068151171875000000e+04
-6.068076562500000000e+04
-6.067871484375000000e+04
-6.068065625000000000e+04
-6.068002343750000000e+04
-6.068082812500000000e+04
-6.068138671875000000e+04
-6.068139453125000000e+04
-6.068032421875000000e+04
-6.067857421875000000e+04
-6.068018750000000000e+04
-6.068020703125000000e+04
-6.068033203125000000e+04
-6.068082812500000000e+04
-6.068052343750000000e+04
-6.067969531250000000e+04
-6.067974609375000000e+04
-6.068125781250000000e+04
-6.068151953125000000e+04
-6.068126171875000000e+04
-6.068024609375000000e+04
-6.067898828125000000e+04
-6.068100781250000000e+04
-6.068031250000000000e+04
-6.068130859375000000e+04
-6.068155468750000000e+04
-6.068061328125000000e+04
-6.067955468750000000e+04
-6.068017578125000000e+04
-6.067997265625000000e+04
-6.067994921875000000e+04
-6.068019140625000000e+04
-6.067957812500000000e+04
-6.068085937500000000e+04
-6.067915234375000000e+04
-6.068006250000000000e+04
-6.068119140625000000e+04
-6.068071875000000000e+04
-6.068026171875000000e+04
-6.069343359375000000e+04
-6.067660156250000000e+04
-6.067532031250000000e+04
-6.066827343750000000e+04
-6.066881640625000000e+04
-6.066692968750000000e+04
-6.066656250000000000e+04
-6.066829687500000000e+04
-6.066572656250000000e+04
-6.066535156250000000e+04
-6.066602343750000000e+04
-6.066426562500000000e+04
-6.066590625000000000e+04
-6.066621093750000000e+04
-6.066523437500000000e+04
-6.066571484375000000e+04
-6.066521484375000000e+04
-6.066628515625000000e+04
-6.066747265625000000e+04
-6.066705468750000000e+04
-6.066594921875000000e+04
-6.066219140625000000e+04
-6.066582421875000000e+04
-6.066630078125000000e+04
-6.066686718750000000e+04
-6.066438671875000000e+04
-6.066507812500000000e+04
-6.066525390625000000e+04
-6.066534375000000000e+04
-6.066473046875000000e+04
-6.066589843750000000e+04
-6.066337890625000000e+04
-6.066362890625000000e+04
-6.066439843750000000e+04
-6.066646484375000000e+04
-6.066309375000000000e+04
-6.066462500000000000e+04
-6.066375781250000000e+04
-6.066249218750000000e+04
-6.066268359375000000e+04
-6.066496484375000000e+04
-6.066419921875000000e+04
-6.066530078125000000e+04
-6.066407031250000000e+04
-6.069343359375000000e+04
-6.066874609375000000e+04
-6.066601953125000000e+04
-6.066087890625000000e+04
-6.065450390625000000e+04
-6.065443359375000000e+04
-6.064212500000000000e+04
-6.064260546875000000e+04
-6.064274609375000000e+04
-6.064335156250000000e+04
-6.064470312500000000e+04
-6.064314843750000000e+04
-6.064121093750000000e+04
-6.063939062500000000e+04
-6.064106250000000000e+04
-6.063965625000000000e+04
-6.064188281250000000e+04
-6.063777343750000000e+04
-6.064078906250000000e+04
-6.064351953125000000e+04
-6.064078125000000000e+04
-6.063964453125000000e+04
-6.064246093750000000e+04
-6.063971093750000000e+04
-6.063961718750000000e+04
-6.064230468750000000e+04
-6.063968359375000000e+04
-6.063936718750000000e+04
-6.063962890625000000e+04
-6.063906640625000000e+04
-6.064159375000000000e+04
-6.063863281250000000e+04
-6.064112500000000000e+04
-6.063820312500000000e+04
-6.063860937500000000e+04
-6.063796875000000000e+04
-6.063739453125000000e+04
-6.063595312500000000e+04
-6.063759765625000000e+04
-6.064024609375000000e+04
-6.064188281250000000e+04
-6.063723828125000000e+04
-6.063601562500000000e+04
-6.063555859375000000e+04
-6.063376562500000000e+04
-6.063330859375000000e+04
-6.069248437500000000e+04
-6.068326953125000000e+04
-6.068179296875000000e+04
-6.068001562500000000e+04
-6.068024609375000000e+04
-6.068050000000000000e+04
-6.068176171875000000e+04
-6.068105468750000000e+04
-6.068135546875000000e+04
-6.067988281250000000e+04
-6.068144140625000000e+04
-6.068070312500000000e+04
-6.068103515625000000e+04
-6.068092968750000000e+04
-6.068076171875000000e+04
-6.068029296875000000e+04
-6.067993359375000000e+04
-6.068104296875000000e+04
-6.068187890625000000e+04
-6.068139453125000000e+04
-6.068213281250000000e+04
-6.068142578125000000e+04
-6.068028906250000000e+04
-6.068017578125000000e+04
-6.068108984375000000e+04
-6.068149218750000000e+04
-6.068138671875000000e+04
-6.068081250000000000e+04
-6.067975390625000000e+04
-6.068054296875000000e+04
-6.068046484375000000e+04
-6.068224218750000000e+04
-6.068164453125000000e+04
-6.068125390625000000e+04
-6.068051953125000000e+04
-6.068116015625000000e+04
-6.068125781250000000e+04
-6.068082812500000000e+04
-6.068155468750000000e+04
-6.068134375000000000e+04
-6.068183984375000000e+04
-6.068147265625000000e+04
-6.068103906250000000e+04
-6.068035546875000000e+04
-6.068215234375000000e+04
-6.068087109375000000e+04
-6.068089453125000000e+04
-6.068146093750000000e+04
-6.069248437500000000e+04
-6.067543359375000000e+04
-6.066868359375000000e+04
-6.066790234375000000e+04
-6.066562500000000000e+04
-6.066444531250000000e+04
-6.066418750000000000e+04
-6.066632812500000000e+04
-6.066530468750000000e+04
-6.066666015625000000e+04
-6.066417578125000000e+04
-6.066189062500000000e+04
-6.066267578125000000e+04
-6.066416406250000000e+04
-6.066204687500000000e+04
-6.066403906250000000e+04
-6.066691015625000000e+04
-6.066644921875000000e+04
-6.066603515625000000e+04
-6.066455859375000000e+04
-6.066275000000000000e+04
-6.066362890625000000e+04
-6.066500390625000000e+04
-6.066740234375000000e+04
-6.066260546875000000e+04
-6.066524609375000000e+04
-6.066455078125000000e+04
-6.066473437500000000e+04
-6.066562109375000000e+04
-6.066529687500000000e+04
-6.066632812500000000e+04
-6.066453125000000000e+04
-6.066139453125000000e+04
-6.066246093750000000e+04
-6.066510937500000000e+04
-6.066496875000000000e+04
-6.066442968750000000e+04
-6.066130859375000000e+04
-6.066258984375000000e+04
-6.065966015625000000e+04
-6.066224609375000000e+04
-6.066383203125000000e+04
-6.066372265625000000e+04
-6.069248437500000000e+04
-6.066730859375000000e+04
-6.066614453125000000e+04
-6.065932812500000000e+04
-6.065551171875000000e+04
-6.065010937500000000e+04
-6.064688281250000000e+04
-6.064134375000000000e+04
-6.063940625000000000e+04
-6.063892187500000000e+04
-6.064181640625000000e+04
-6.064225781250000000e+04
-6.064132421875000000e+04
-6.064132031250000000e+04
-6.064236328125000000e+04
-6.064161328125000000e+04
-6.063996484375000000e+04
-6.064209375000000000e+04
-6.064162109375000000e+04
-6.064334765625000000e+04
-6.064238281250000000e+04
-6.063989453125000000e+04
-6.064219921875000000e+04
-6.064087500000000000e+04
-6.064017968750000000e+04
-6.063924609375000000e+04
-6.063956250000000000e+04
-6.063997265625000000e+04
-6.063798046875000000e+04
-6.064360937500000000e+04
-6.064212890625000000e+04
-6.064158203125000000e+04
-6.063779296875000000e+04
-6.063893750000000000e+04
-6.063506250000000000e+04
-6.063712500000000000e+04
-6.064021484375000000e+04
-6.063993359375000000e+04
-6.064166015625000000e+04
-6.063998437500000000e+04
-6.064163281250000000e+04
-6.063743750000000000e+04
-6.063796875000000000e+04
-6.063718359375000000e+04
-6.063791406250000000e+04
-6.063797656250000000e+04
-6.063739453125000000e+04
-6.063508984375000000e+04
-6.063668750000000000e+04
-6.069444921875000000e+04
-6.068438671875000000e+04
-6.068451953125000000e+04
-6.068179296875000000e+04
-6.068241015625000000e+04
-6.068148437500000000e+04
-6.068203906250000000e+04
-6.068257421875000000e+04
-6.068196875000000000e+04
-6.068210156250000000e+04
-6.068116015625000000e+04
-6.068243750000000000e+04
-6.068266796875000000e+04
-6.068313281250000000e+04
-6.068360156250000000e+04
-6.068246093750000000e+04
-6.068198046875000000e+04
-6.068189062500000000e+04
-6.068177734375000000e+04
-6.068212500000000000e+04
-6.068307031250000000e+04
-6.068240234375000000e+04
-6.068243750000000000e+04
-6.068161328125000000e+04
-6.068227343750000000e+04
-6.068134375000000000e+04
-6.068388671875000000e+04
-6.068269140625000000e+04
-6.068184375000000000e+04
-6.068093359375000000e+04
-6.068230859375000000e+04
-6.068269140625000000e+04
-6.068278125000000000e+04
-6.068237500000000000e+04
-6.068164453125000000e+04
-6.068198828125000000e+04
-6.068268359375000000e+04
-6.068273437500000000e+04
-6.068122265625000000e+04
-6.068209765625000000e+04
-6.068192578125000000e+04
-6.068252734375000000e+04
-6.068288671875000000e+04
-6.068244140625000000e+04
-6.068152734375000000e+04
-6.068350390625000000e+04
-6.068178515625000000e+04
-6.068213671875000000e+04
-6.069444921875000000e+04
-6.067691796875000000e+04
-6.067631640625000000e+04
-6.067276562500000000e+04
-6.066994531250000000e+04
-6.066753125000000000e+04
-6.066552343750000000e+04
-6.066565625000000000e+04
-6.066689843750000000e+04
-6.066746484375000000e+04
-6.066740234375000000e+04
-6.066575000000000000e+04
-6.066634375000000000e+04
-6.066606250000000000e+04
-6.066546484375000000e+04
-6.066754296875000000e+04
-6.066671875000000000e+04