6.532365417480468750e+01 1.758470153808593750e+01 1.558926010131835938e+01 1.758470153808593750e+01 6.030271148681640625e+01 2.250943756103515625e+01 1.558926010131835938e+01 2.250943756103515625e+01 9.914144134521484375e+01
-5.812691497802734375e+01 2.091656923294067383e+00 -6.406401634216308594e+00 2.091656923294067383e+00 -4.532974243164062500e+01 1.248143100738525391e+01 -6.406401634216308594e+00 1.248143100738525391e+01 -3.923144149780273438e+01
-1.588030624389648438e+01 3.331866741180419922e+00 3.403729498386383057e-01 3.331866741180419922e+00 8.529233932495117188e+00 -2.398340702056884766e-01 3.403729498386383057e-01 -2.398340702056884766e-01 -1.348039722442626953e+01
8.325876235961914062e+00 6.704319953918457031e+00 -6.960432052612304688e+00 6.704319953918457031e+00 8.560426712036132812e+00 -5.790195465087890625e+00 -6.960432052612304688e+00 -5.790195465087890625e+00 1.715128326416015625e+01
-2.135517692565917969e+01 -5.509063005447387695e-01 -5.716508865356445312e+00 -5.509063005447387695e-01 -3.677004623413085938e+01 1.930742454528808594e+01 -5.716508865356445312e+00 1.930742454528808594e+01 -6.426118850708007812e+00
-3.112892150878906250e+01 2.515059947967529297e+00 -2.013131141662597656e+00 2.515059947967529297e+00 6.883139610290527344e-01 4.702530860900878906e+00 -2.013131141662597656e+00 4.702530860900878906e+00 -5.798280715942382812e+00
-5.697917938232421875e+00 5.460322380065917969e+00 -3.110460758209228516e+00 5.460322380065917969e+00 2.974141836166381836e+00 2.841338396072387695e+00 -3.110460758209228516e+00 2.841338396072387695e+00 1.417042446136474609e+01
-8.549675941467285156e+00 6.544930934906005859e+00 3.213603496551513672e+00 6.544930934906005859e+00 -4.430523395538330078e+00 -3.535109758377075195e+00 3.213603496551513672e+00 -3.535109758377075195e+00 -8.529324531555175781e-01
-9.139582633972167969e+00 7.261020660400390625e+00 -5.014095306396484375e+00 7.261020660400390625e+00 4.830481529235839844e+00 5.404551506042480469e+00 -5.014095306396484375e+00 5.404551506042480469e+00 1.306886434555053711e+00
-6.837624073028564453e+00 8.597574234008789062e+00 6.009594440460205078e+00 8.597574234008789062e+00 4.624419212341308594e+00 2.027932107448577881e-01 6.009594440460205078e+00 2.027932107448577881e-01 6.215299606323242188e+00
-5.772109985351562500e+00 8.853912353515625000e+00 -3.351186752319335938e+00 8.853912353515625000e+00 5.947352409362792969e+00 4.737060546875000000e+00 -3.351186752319335938e+00 4.737060546875000000e+00 8.529728889465332031e+00
-1.966560554504394531e+01 -1.663605332374572754e+00 1.519375562667846680e+00 -1.663605332374572754e+00 8.983314514160156250e+00 1.237950038909912109e+01 1.519375562667846680e+00 1.237950038909912109e+01 -9.005342483520507812e+00
-1.524527835845947266e+01 5.988963603973388672e+00 -5.253553390502929688e+00 5.988963603973388672e+00 -7.698367118835449219e+00 4.108573436737060547e+00 -5.253553390502929688e+00 4.108573436737060547e+00 1.003507709503173828e+01
-1.609948158264160156e+01 2.858603954315185547e+00 -8.246660232543945312e+00 2.858603954315185547e+00 4.834338650107383728e-02 1.001311659812927246e+00 -8.246660232543945312e+00 1.001311659812927246e+00 -3.617980480194091797e-01
-7.742888927459716797e+00 -5.608956336975097656e+00 4.710121631622314453e+00 -5.608956336975097656e+00 -1.718843355774879456e-02 -4.338811151683330536e-03 4.710121631622314453e+00 -4.338811151683330536e-03 4.994276523590087891e+00
-1.278992176055908203e+01 6.345184326171875000e+00 -5.498315691947937012e-01 6.345184326171875000e+00 7.320805549621582031e+00 1.551632595062255859e+01 -5.498315691947937012e-01 1.551632595062255859e+01 -3.686541318893432617e+00
-1.165741634368896484e+01 1.431560802459716797e+01 2.495174407958984375e+00 1.431560802459716797e+01 5.551005840301513672e+00 7.498755455017089844e+00 2.495174407958984375e+00 7.498755455017089844e+00 1.658806228637695312e+01
-1.208306789398193359e+01 1.332235574722290039e+00 2.204560756683349609e+00 1.332235574722290039e+00 -1.845147132873535156e+01 6.731917858123779297e+00 2.204560756683349609e+00 6.731917858123779297e+00 9.597220420837402344e+00
-1.278250122070312500e+01 -4.044276714324951172e+00 -1.340665340423583984e+01 -4.044276714324951172e+00 1.832097887992858887e+00 -7.511857986450195312e+00 -1.340665340423583984e+01 -7.511857986450195312e+00 -9.510543823242187500e+00
1.736878752708435059e+00 9.984716415405273438e+00 -1.114586544036865234e+01 9.984716415405273438e+00 6.141350269317626953e+00 9.426464080810546875e+00 -1.114586544036865234e+01 9.426464080810546875e+00 1.186595535278320312e+01
-2.368642807006835938e+01 2.901219844818115234e+00 -1.446181178092956543e+00 2.901219844818115234e+00 -1.727924156188964844e+01 8.057422637939453125e+00 -1.446181178092956543e+00 8.057422637939453125e+00 3.022069692611694336e+00
-1.589315795898437500e+01 -8.831305503845214844e-01 2.402268648147583008e+00 -8.831305503845214844e-01 -4.022393226623535156e+00 8.563168525695800781e+00 2.402268648147583008e+00 8.563168525695800781e+00 3.254855155944824219e+00
-2.864891886711120605e-01 -3.430266141891479492e+00 2.523417711257934570e+00 -3.430266141891479492e+00 -1.861721420288085938e+01 9.333109855651855469e+00 2.523417711257934570e+00 9.333109855651855469e+00 -2.937565565109252930e+00
-6.700711727142333984e+00 1.410948753356933594e+01 1.664668798446655273e+00 1.410948753356933594e+01 -1.009566307067871094e+01 1.062611865997314453e+01 1.664668798446655273e+00 1.062611865997314453e+01 -4.955958724021911621e-01
-1.620061683654785156e+01 1.024944972991943359e+01 -1.674685716629028320e+00 1.024944972991943359e+01 1.969631767272949219e+01 3.265732049942016602e+00 -1.674685716629028320e+00 3.265732049942016602e+00 1.513613605499267578e+01
-3.631919324398040771e-01 1.276893854141235352e+00 -2.213549852371215820e+00 1.276893854141235352e+00 -6.244729518890380859e+00 5.538884162902832031e+00 -2.213549852371215820e+00 5.538884162902832031e+00 -1.094651889801025391e+01
-3.385267257690429688e+01 8.620680809020996094e+00 -1.131331920623779297e+00 8.620680809020996094e+00 -6.786674976348876953e+00 1.091143417358398438e+01 -1.131331920623779297e+00 1.091143417358398438e+01 -8.091555595397949219e+00
-1.379056549072265625e+01 -6.220382690429687500e+00 -5.196070194244384766e+00 -6.220382690429687500e+00 8.379989624023437500e+00 -3.316518306732177734e+00 -5.196070194244384766e+00 -3.316518306732177734e+00 2.087319755554199219e+01
-2.536098289489746094e+01 8.498371124267578125e+00 2.145841836929321289e+00 8.498371124267578125e+00 -1.222600078582763672e+01 -6.728276729583740234e+00 2.145841836929321289e+00 -6.728276729583740234e+00 -1.294176769256591797e+01
1.915696620941162109e+00 7.339496612548828125e+00 7.713969230651855469e+00 7.339496612548828125e+00 -2.062514781951904297e+00 4.888496398925781250e+00 7.713969230651855469e+00 4.888496398925781250e+00 1.693620920181274414e+00
-3.351119756698608398e+00 5.998338222503662109e+00 -2.856157302856445312e+00 5.998338222503662109e+00 -1.087754631042480469e+01 1.271062946319580078e+01 -2.856157302856445312e+00 1.271062946319580078e+01 5.760715961456298828e+00
-2.081169128417968750e+01 1.477470016479492188e+01 -7.124717712402343750e+00 1.477470016479492188e+01 4.836413860321044922e+00 4.775756835937500000e+00 -7.124717712402343750e+00 4.775756835937500000e+00 -8.631799697875976562e+00
-3.588735580444335938e+01 6.654455065727233887e-01 -1.949841856956481934e+00 6.654455065727233887e-01 8.073431253433227539e-01 -7.253754138946533203e+00 -1.949841856956481934e+00 -7.253754138946533203e+00 -3.005417346954345703e+00
-1.523509693145751953e+01 6.647309780120849609e+00 6.150927543640136719e+00 6.647309780120849609e+00 -7.236160278320312500e+00 1.315861892700195312e+01 6.150927543640136719e+00 1.315861892700195312e+01 5.842544078826904297e+00
-1.237269401550292969e+01 8.109194755554199219e+00 7.161292552947998047e+00 8.109194755554199219e+00 3.738919496536254883e+00 1.225322246551513672e+01 7.161292552947998047e+00 1.225322246551513672e+01 7.564497947692871094e+00
-7.261910438537597656e+00 9.495778083801269531e+00 -8.402650833129882812e+00 9.495778083801269531e+00 2.138538742065429688e+01 -2.860200405120849609e-01 -8.402650833129882812e+00 -2.860200405120849609e-01 1.177057456970214844e+01
-1.228927326202392578e+01 -3.163726627826690674e-01 -2.574232578277587891e+00 -3.163726627826690674e-01 4.307604789733886719e+00 7.460066080093383789e-01 -2.574232578277587891e+00 7.460066080093383789e-01 5.902765274047851562e+00
-1.857040786743164062e+01 1.100878715515136719e+01 -6.100327968597412109e+00 1.100878715515136719e+01 2.076721906661987305e+00 2.145692586898803711e+00 -6.100327968597412109e+00 2.145692586898803711e+00 -7.083554565906524658e-02
-1.907211685180664062e+01 1.244639778137207031e+01 3.154442310333251953e-01 1.244639778137207031e+01 -1.041606998443603516e+01 -1.324428439140319824e+00 3.154442310333251953e-01 -1.324428439140319824e+00 1.635478019714355469e+01
-1.541005706787109375e+01 -2.675609350204467773e+00 -2.395205497741699219e+00 -2.675609350204467773e+00 -1.214210319519042969e+01 2.969612121582031250e+00 -2.395205497741699219e+00 2.969612121582031250e+00 6.831079125404357910e-01
-2.298462486267089844e+01 7.566574096679687500e+00 -6.609463214874267578e+00 7.566574096679687500e+00 7.540872573852539062e+00 8.141022324562072754e-01 -6.609463214874267578e+00 8.141022324562072754e-01 7.778298377990722656e+00
1.153858280181884766e+01 9.009060859680175781e+00 5.683740615844726562e+00 9.009060859680175781e+00 -1.053213000297546387e+00 4.221782207489013672e+00 5.683740615844726562e+00 4.221782207489013672e+00 1.675659418106079102e+00
-1.407704353332519531e+01 1.192395877838134766e+01 6.246835708618164062e+00 1.192395877838134766e+01 -1.854271697998046875e+01 -9.111338615417480469e+00 6.246835708618164062e+00 -9.111338615417480469e+00 1.715036153793334961e+00
-2.531893348693847656e+01 -1.810712814331054688e+00 -6.897984981536865234e+00 -1.810712814331054688e+00 -4.137139320373535156e+00 2.965337276458740234e+00 -6.897984981536865234e+00 2.965337276458740234e+00 6.408166885375976562e+00
-1.177845001220703125e+01 2.954334497451782227e+00 -1.280882167816162109e+01 2.954334497451782227e+00 1.490666961669921875e+01 1.242815208435058594e+01 -1.280882167816162109e+01 1.242815208435058594e+01 2.093388938903808594e+01
6.532365417480468750e+01 1.758470153808593750e+01 1.558926010131835938e+01 1.758470153808593750e+01 6.030271148681640625e+01 2.250943756103515625e+01 1.558926010131835938e+01 2.250943756103515625e+01 9.914144134521484375e+01
-5.457188415527343750e+01 -2.950335480272769928e-02 2.295046091079711914e+00 -2.950335480272769928e-02 -6.348111343383789062e+01 4.424592018127441406e+00 2.295046091079711914e+00 4.424592018127441406e+00 -2.709906196594238281e+01
-3.804275512695312500e+01 -2.396953105926513672e-01 -1.163069915771484375e+01 -2.396953105926513672e-01 -2.447446441650390625e+01 1.624393272399902344e+01 -1.163069915771484375e+01 1.624393272399902344e+01 -2.113877487182617188e+01
-1.036670112609863281e+01 7.511828422546386719e+00 -2.731143474578857422e+00 7.511828422546386719e+00 2.525992870330810547e+00 1.069089248776435852e-01 -2.731143474578857422e+00 1.069089248776435852e-01 1.617017936706542969e+01
-1.346012210845947266e+01 8.485840797424316406e+00 -3.889544248580932617e+00 8.485840797424316406e+00 -4.733247756958007812e+00 1.490233421325683594e+01 -3.889544248580932617e+00 1.490233421325683594e+01 1.729321861267089844e+01
-3.229562282562255859e+00 -4.572896003723144531e+00 -1.712669563293457031e+01 -4.572896003723144531e+00 -2.365574264526367188e+01 -7.318189144134521484e-01 -1.712669563293457031e+01 -7.318189144134521484e-01 -6.220856666564941406e+00
-1.337877178192138672e+01 1.906910324096679688e+01 5.988249778747558594e-01 1.906910324096679688e+01 -5.744726181030273438e+01 7.497357368469238281e+00 5.988249778747558594e-01 7.497357368469238281e+00 -4.309518432617187500e+01
-2.101607799530029297e+00 2.871761083602905273e+00 5.865112304687500000e+00 2.871761083602905273e+00 1.920080423355102539e+00 5.605898857116699219e+00 5.865112304687500000e+00 5.605898857116699219e+00 4.110917747020721436e-01
-2.814405822753906250e+01 8.725026130676269531e+00 4.664142608642578125e+00 8.725026130676269531e+00 -2.581309509277343750e+01 -5.139089584350585938e+00 4.664142608642578125e+00 -5.139089584350585938e+00 9.749558448791503906e+00
-5.619859695434570312e+00 -4.256184697151184082e-01 -5.895759105682373047e+00 -4.256184697151184082e-01 -1.921639251708984375e+01 1.326510608196258545e-01 -5.895759105682373047e+00 1.326510608196258545e-01 1.060378837585449219e+01
-3.063680267333984375e+01 6.645084381103515625e+00 -6.713445186614990234e+00 6.645084381103515625e+00 -5.445106029510498047e+00 8.632658004760742188e+00 -6.713445186614990234e+00 8.632658004760742188e+00 4.786303997039794922e+00
-2.915680122375488281e+01 2.165851974487304688e+01 3.827285766601562500e+00 2.165851974487304688e+01 -3.468572998046875000e+01 -1.564587020874023438e+01 3.827285766601562500e+00 -1.564587020874023438e+01 -2.989503860473632812e+01
-1.577741336822509766e+01 4.412798404693603516e+00 2.687784910202026367e+00 4.412798404693603516e+00 8.594729900360107422e-01 -9.416462898254394531e+00 2.687784910202026367e+00 -9.416462898254394531e+00 4.999957561492919922e+00
-2.886794281005859375e+01 -6.602552890777587891e+00 1.053880691528320312e+00 -6.602552890777587891e+00 -1.236187267303466797e+01 -3.304598927497863770e-01 1.053880691528320312e+00 -3.304598927497863770e-01 -4.072098541259765625e+01
-2.806303024291992188e+00 -6.584873676300048828e+00 4.739129066467285156e+00 -6.584873676300048828e+00 -1.787562751770019531e+01 5.773725986480712891e+00 4.739129066467285156e+00 5.773725986480712891e+00 1.721775159239768982e-02
-1.295062541961669922e+01 1.738010215759277344e+01 1.054313302040100098e+00 1.738010215759277344e+01 -1.585136318206787109e+01 -1.054985332489013672e+01 1.054313302040100098e+00 -1.054985332489013672e+01 -9.064368247985839844e+00
-2.961270141601562500e+01 1.099808406829833984e+01 -1.016987323760986328e+01 1.099808406829833984e+01 -1.314534473419189453e+01 9.238804817199707031e+00 -1.016987323760986328e+01 9.238804817199707031e+00 8.101552009582519531e+00
-1.567833328247070312e+01 7.089802742004394531e+00 -3.148389339447021484e+00 7.089802742004394531e+00 -1.086429595947265625e+01 -5.515430927276611328e+00 -3.148389339447021484e+00 -5.515430927276611328e+00 -1.511193370819091797e+01
1.492927646636962891e+01 -4.921829223632812500e+00 -2.903462409973144531e+00 -4.921829223632812500e+00 3.312644362449645996e-01 5.481633186340332031e+00 -2.903462409973144531e+00 5.481633186340332031e+00 4.870543003082275391e+00
-1.966231155395507812e+01 1.588284134864807129e+00 -6.307776451110839844e+00 1.588284134864807129e+00 9.068163037300109863e-01 9.646038055419921875e+00 -6.307776451110839844e+00 9.646038055419921875e+00 -1.199526882171630859e+01
-4.202959823608398438e+01 1.422898864746093750e+01 1.605980515480041504e+00 1.422898864746093750e+01 -2.894483375549316406e+01 4.213248491287231445e-01 1.605980515480041504e+00 4.213248491287231445e-01 -1.200402545928955078e+01
-2.763677597045898438e+01 -2.248723983764648438e+00 -2.014335060119628906e+01 -2.248723983764648438e+00 -1.763924002647399902e+00 1.867411613464355469e+01 -2.014335060119628906e+01 1.867411613464355469e+01 -4.419618129730224609e+00
-1.983586883544921875e+01 -3.668066263198852539e+00 -1.563438129425048828e+01 -3.668066263198852539e+00 -1.314937782287597656e+01 -1.069424533843994141e+01 -1.563438129425048828e+01 -1.069424533843994141e+01 -2.309068870544433594e+01
-1.153515815734863281e+01 -4.493510723114013672e+00 -3.111487627029418945e-01 -4.493510723114013672e+00 -1.789783668518066406e+01 2.986109972000122070e+00 -3.111487627029418945e-01 2.986109972000122070e+00 -2.646622657775878906e+01
-3.066805076599121094e+01 -8.090639114379882812e+00 -1.369682550430297852e+00 -8.090639114379882812e+00 -1.026910781860351562e+01 7.065046787261962891e+00 -1.369682550430297852e+00 7.065046787261962891e+00 9.111232757568359375e+00
2.076586484909057617e+00 7.096950054168701172e+00 -7.537065505981445312e+00 7.096950054168701172e+00 -4.178609371185302734e+00 1.334809303283691406e+01 -7.537065505981445312e+00 1.334809303283691406e+01 2.791929435729980469e+01
-2.371798324584960938e+01 4.645348072052001953e+00 -6.660677433013916016e+00 4.645348072052001953e+00 -2.777536392211914062e+01 -7.102313637733459473e-01 -6.660677433013916016e+00 -7.102313637733459473e-01 -3.441347122192382812e+01
-2.677169036865234375e+01 -4.499116897583007812e+00 1.615121841430664062e+00 -4.499116897583007812e+00 -1.304524326324462891e+01 -1.591358780860900879e+00 1.615121841430664062e+00 -1.591358780860900879e+00 -1.806341934204101562e+01
-1.431422138214111328e+01 -1.467856788635253906e+01 -1.556156039237976074e+00 -1.467856788635253906e+01 -6.101653099060058594e+00 -1.888902664184570312e+01 -1.556156039237976074e+00 -1.888902664184570312e+01 1.223655796051025391e+01
-3.205352020263671875e+01 7.685755252838134766e+00 -2.722765445709228516e+00 7.685755252838134766e+00 -4.900313854217529297e+00 7.572371482849121094e+00 -2.722765445709228516e+00 7.572371482849121094e+00 4.054079055786132812e+00
6.405350685119628906e+00 -3.939709186553955078e+00 1.191729068756103516e+01 -3.939709186553955078e+00 1.471769618988037109e+01 1.422570610046386719e+01 1.191729068756103516e+01 1.422570610046386719e+01 3.122584581375122070e+00
-4.229134750366210938e+01 -6.618429183959960938e+00 2.136498928070068359e+00 -6.618429183959960938e+00 -3.778671264648437500e+01 5.153900146484375000e+00 2.136498928070068359e+00 5.153900146484375000e+00 -2.854778099060058594e+01
-2.647180938720703125e+01 5.333115458488464355e-01 -4.286972999572753906e+00 5.333115458488464355e-01 -1.477053284645080566e+00 -5.743385553359985352e-01 -4.286972999572753906e+00 -5.743385553359985352e-01 -7.807315349578857422e+00
-1.326160049438476562e+01 1.254734897613525391e+01 5.584222316741943359e+00 1.254734897613525391e+01 -6.534687042236328125e+00 -4.225210666656494141e+00 5.584222316741943359e+00 -4.225210666656494141e+00 -1.284752559661865234e+01
-1.453659820556640625e+01 7.216290473937988281e+00 -4.989874362945556641e+00 7.216290473937988281e+00 1.388770818710327148e+00 -1.501331210136413574e+00 -4.989874362945556641e+00 -1.501331210136413574e+00 5.703956127166748047e+00
-1.771108245849609375e+01 1.456288909912109375e+01 -4.040597438812255859e+00 1.456288909912109375e+01 7.093705654144287109e+00 -3.081383228302001953e+00 -4.040597438812255859e+00 -3.081383228302001953e+00 -3.776316642761230469e+00
-9.576090812683105469e+00 4.107375621795654297e+00 7.082400798797607422e+00 4.107375621795654297e+00 -1.373125553131103516e+01 -1.764655828475952148e+00 7.082400798797607422e+00 -1.764655828475952148e+00 -1.852441024780273438e+01
-3.331693267822265625e+01 2.326907515525817871e-01 -4.882316589355468750e+00 2.326907515525817871e-01 -2.341192626953125000e+01 -2.421709775924682617e+00 -4.882316589355468750e+00 -2.421709775924682617e+00 -1.615896797180175781e+01
-2.424767494201660156e+01 -7.523857116699218750e+00 -2.342475318908691406e+01 -7.523857116699218750e+00 -1.354043674468994141e+01 7.441012382507324219e+00 -2.342475318908691406e+01 7.441012382507324219e+00 -1.422851467132568359e+01
-1.890967941284179688e+01 -4.350279808044433594e+00 -9.090968221426010132e-02 -4.350279808044433594e+00 -6.141566753387451172e+00 1.164786815643310547e+01 -9.090968221426010132e-02 1.164786815643310547e+01 -1.560194396972656250e+01
-9.935275077819824219e+00 -3.444376468658447266e+00 5.144340515136718750e+00 -3.444376468658447266e+00 2.178660631179809570e+00 2.681023836135864258e+00 5.144340515136718750e+00 2.681023836135864258e+00 -5.327194929122924805e-01
-3.805243492126464844e+00 1.631005477905273438e+01 -3.075386285781860352e+00 1.631005477905273438e+01 -9.929940223693847656e+00 -2.630761861801147461e+00 -3.075386285781860352e+00 -2.630761861801147461e+00 -2.270803689956665039e+00
-2.010625839233398438e+01 -3.821224868297576904e-01 -1.618046045303344727e+00 -3.821224868297576904e-01 -1.675171279907226562e+01 4.972885608673095703e+00 -1.618046045303344727e+00 4.972885608673095703e+00 -1.063339233398437500e+00
-3.764290618896484375e+01 -1.971121430397033691e+00 -8.566771507263183594e+00 -1.971121430397033691e+00 -6.120706081390380859e+00 -1.894126892089843750e+00 -8.566771507263183594e+00 -1.894126892089843750e+00 7.408309936523437500e+00
-3.754874038696289062e+01 1.050568938255310059e+00 -6.751771450042724609e+00 1.050568938255310059e+00 -7.276810169219970703e+00 2.440241098403930664e+00 -6.751771450042724609e+00 2.440241098403930664e+00 -7.594877719879150391e+00
-2.699853134155273438e+01 2.388527393341064453e+00 -2.654149770736694336e+00 2.388527393341064453e+00 -2.828189277648925781e+01 -1.054814577102661133e+00 -2.654149770736694336e+00 -1.054814577102661133e+00 -3.024487113952636719e+01
-3.652986526489257812e+01 -6.299599170684814453e+00 4.762761116027832031e+00 -6.299599170684814453e+00 -3.870529234409332275e-01 1.595476031303405762e+00 4.762761116027832031e+00 1.595476031303405762e+00 2.376900434494018555e+00
-3.264671707153320312e+01 -1.561235332489013672e+01 5.051758766174316406e+00 -1.561235332489013672e+01 -1.428211879730224609e+01 6.371712684631347656e+00 5.051758766174316406e+00 6.371712684631347656e+00 -1.540223217010498047e+01
6.532365417480468750e+01 1.758470153808593750e+01 1.558926010131835938e+01 1.758470153808593750e+01 6.030271148681640625e+01 2.250943756103515625e+01 1.558926010131835938e+01 2.250943756103515625e+01 9.914144134521484375e+01
-4.379121017456054688e+01 -1.875789999961853027e+00 -6.249251365661621094e+00 -1.875789999961853027e+00 -2.446805953979492188e+01 3.424767851829528809e-01 -6.249251365661621094e+00 3.424767851829528809e-01 -1.576647377014160156e+01
-2.429522514343261719e+01 2.141609764099121094e+01 1.530722260475158691e+00 2.141609764099121094e+01 -1.083514118194580078e+01 2.260450839996337891e+00 1.530722260475158691e+00 2.260450839996337891e+00 -3.874787807464599609e+00
-2.748035430908203125e+00 -1.270359802246093750e+01 -1.453328990936279297e+01 -1.270359802246093750e+01 1.697285270690917969e+01 -1.705440163612365723e+00 -1.453328990936279297e+01 -1.705440163612365723e+00 -5.126172542572021484e+00
-6.317901611328125000e+01 -5.400937080383300781e+00 2.974228858947753906e-01 -5.400937080383300781e+00 -3.405467605590820312e+01 4.017029762268066406e+00 2.974228858947753906e-01 4.017029762268066406e+00 -2.822512817382812500e+01
-4.803260803222656250e+01 2.475978374481201172e+00 -1.009193897247314453e+01 2.475978374481201172e+00 -4.487924957275390625e+01 1.169416236877441406e+01 -1.009193897247314453e+01 1.169416236877441406e+01 -4.215713119506835938e+01
-4.032356262207031250e+01 -1.164081335067749023e+00 1.175828742980957031e+01 -1.164081335067749023e+00 -2.305876350402832031e+01 1.230079269409179688e+01 1.175828742980957031e+01 1.230079269409179688e+01 -4.247944641113281250e+01
-7.088439941406250000e+01 1.246554470062255859e+01 -1.939962655305862427e-01 1.246554470062255859e+01 -5.070085144042968750e+01 1.064565753936767578e+01 -1.939962655305862427e-01 1.064565753936767578e+01 -4.359093856811523438e+01
-2.034259986877441406e+01 -7.467713356018066406e-01 -1.025992298126220703e+01 -7.467713356018066406e-01 -9.932821273803710938e+00 -1.611742496490478516e+00 -1.025992298126220703e+01 -1.611742496490478516e+00 -5.133008480072021484e+00
-1.506322860717773438e+01 6.295742034912109375e+00 -2.909639835357666016e+00 6.295742034912109375e+00 -2.085702896118164062e+01 7.411515712738037109e-01 -2.909639835357666016e+00 7.411515712738037109e-01 -1.452960968017578125e+01
-1.388870906829833984e+01 2.307359504699707031e+01 -2.325080871582031250e+01 2.307359504699707031e+01 -4.616027832031250000e+01 -2.523046731948852539e+00 -2.325080871582031250e+01 -2.523046731948852539e+00 -2.003535509109497070e+00
-9.123528480529785156e+00 3.770239830017089844e+00 -1.412068271636962891e+01 3.770239830017089844e+00 -1.103366184234619141e+01 6.548192501068115234e+00 -1.412068271636962891e+01 6.548192501068115234e+00 -3.594831466674804688e+01
-1.624144935607910156e+01 7.983114719390869141e+00 -3.259799957275390625e+00 7.983114719390869141e+00 8.459162712097167969e+00 -9.292193412780761719e+00 -3.259799957275390625e+00 -9.292193412780761719e+00 8.938801765441894531e+00
1.040285110473632812e+01 6.140264511108398438e+00 -6.926797866821289062e+00 6.140264511108398438e+00 -7.052225589752197266e+00 1.318532466888427734e+01 -6.926797866821289062e+00 1.318532466888427734e+01 1.214026641845703125e+01
-2.690933036804199219e+01 1.113529491424560547e+01 -3.482803106307983398e+00 1.113529491424560547e+01 1.623997688293457031e+01 2.653305435180664062e+01 -3.482803106307983398e+00 2.653305435180664062e+01 -1.434135532379150391e+01
-3.231964874267578125e+01 -2.173136711120605469e+00 3.126812934875488281e+00 -2.173136711120605469e+00 -2.668116188049316406e+01 -5.208292961120605469e+00 3.126812934875488281e+00 -5.208292961120605469e+00 -3.438786697387695312e+01
-2.542799186706542969e+01 1.369292438030242920e-01 1.067704582214355469e+01 1.369292438030242920e-01 -3.072142982482910156e+01 8.604077339172363281e+00 1.067704582214355469e+01 8.604077339172363281e+00 -2.445023727416992188e+01
3.247759819030761719e+00 8.044305801391601562e+00 -1.649237275123596191e+00 8.044305801391601562e+00 -4.046976852416992188e+01 3.763706445693969727e+00 -1.649237275123596191e+00 3.763706445693969727e+00 -2.260788345336914062e+01
-1.075400447845458984e+01 1.539519214630126953e+01 -7.074480056762695312e+00 1.539519214630126953e+01 -9.894351005554199219e+00 1.883688735961914062e+01 -7.074480056762695312e+00 1.883688735961914062e+01 -1.559612178802490234e+01
-6.056778907775878906e+00 -1.050594806671142578e+01 1.379340839385986328e+01 -1.050594806671142578e+01 -4.288650035858154297e+00 3.479435443878173828e+00 1.379340839385986328e+01 3.479435443878173828e+00 -1.149276256561279297e+01
2.802478551864624023e+00 -1.368884181976318359e+01 -8.487644195556640625e+00 -1.368884181976318359e+01 -6.759081840515136719e+00 -4.716847896575927734e+00 -8.487644195556640625e+00 -4.716847896575927734e+00 -3.645673370361328125e+01
-1.782462596893310547e+00 -8.687979578971862793e-01 1.280400466918945312e+01 -8.687979578971862793e-01 -9.156631469726562500e+00 -1.039424037933349609e+01 1.280400466918945312e+01 -1.039424037933349609e+01 -2.752564048767089844e+01
-3.712244415283203125e+01 1.221978282928466797e+01 -1.346168422698974609e+01 1.221978282928466797e+01 -3.560469436645507812e+01 -1.418133163452148438e+01 -1.346168422698974609e+01 -1.418133163452148438e+01 -3.168719673156738281e+01
-4.595555114746093750e+01 8.068249702453613281e+00 -1.410681152343750000e+01 8.068249702453613281e+00 -3.306286239624023438e+01 -2.974352359771728516e+00 -1.410681152343750000e+01 -2.974352359771728516e+00 -3.902671432495117188e+01
1.594693660736083984e+01 -4.804472446441650391e+00 -8.633123397827148438e+00 -4.804472446441650391e+00 -3.734631776809692383e+00 -5.948808670043945312e+00 -8.633123397827148438e+00 -5.948808670043945312e+00 -1.421162319183349609e+01
-1.533142566680908203e+01 8.455011367797851562e+00 -7.045754432678222656e+00 8.455011367797851562e+00 -1.659340667724609375e+01 6.532288551330566406e+00 -7.045754432678222656e+00 6.532288551330566406e+00 -2.276016616821289062e+01
-5.348925018310546875e+01 1.228283977508544922e+01 -9.961969375610351562e+00 1.228283977508544922e+01 -6.550747680664062500e+01 1.422175645828247070e+00 -9.961969375610351562e+00 1.422175645828247070e+00 -4.705608367919921875e+01
-4.438110351562500000e+00 3.003500747680664062e+01 -8.801155090332031250e+00 3.003500747680664062e+01 7.206903934478759766e+00 1.076034355163574219e+01 -8.801155090332031250e+00 1.076034355163574219e+01 -2.212898445129394531e+01
-2.407083892822265625e+01 -4.926020622253417969e+00 6.332537651062011719e+00 -4.926020622253417969e+00 -2.667096138000488281e+01 -1.104038953781127930e+00 6.332537651062011719e+00 -1.104038953781127930e+00 -2.098896408081054688e+01
-8.537574768066406250e+00 6.895849704742431641e+00 1.736282157897949219e+01 6.895849704742431641e+00 -2.533131217956542969e+01 9.149660110473632812e+00 1.736282157897949219e+01 9.149660110473632812e+00 -2.294388961791992188e+01
-3.255466079711914062e+01 -1.200108051300048828e+00 -4.792218506336212158e-01 -1.200108051300048828e+00 -2.137933921813964844e+01 1.498923969268798828e+01 -4.792218506336212158e-01 1.498923969268798828e+01 -2.930974769592285156e+01
-2.337635231018066406e+01 3.991453647613525391e+00 -2.026740550994873047e+00 3.991453647613525391e+00 5.272278308868408203e+00 1.357563853263854980e+00 -2.026740550994873047e+00 1.357563853263854980e+00 -5.766882419586181641e+00
-4.958885669708251953e+00 1.903421783447265625e+01 -4.345175266265869141e+00 1.903421783447265625e+01 -3.307488632202148438e+01 5.218867301940917969e+00 -4.345175266265869141e+00 5.218867301940917969e+00 -9.362349510192871094e+00
-1.001942253112792969e+01 -1.635202598571777344e+01 1.035634756088256836e+00 -1.635202598571777344e+01 -1.239157485961914062e+01 1.268333435058593750e+01 1.035634756088256836e+00 1.268333435058593750e+01 -2.575705909729003906e+01
-1.327503561973571777e+00 2.880622625350952148e+00 -1.476901817321777344e+01 2.880622625350952148e+00 -9.862369537353515625e+00 -2.889576673507690430e+00 -1.476901817321777344e+01 -2.889576673507690430e+00 -2.525004577636718750e+01
-3.054390907287597656e+01 -9.819011688232421875e+00 -7.244504451751708984e+00 -9.819011688232421875e+00 -4.209632873535156250e+01 -2.432304763793945312e+01 -7.244504451751708984e+00 -2.432304763793945312e+01 -3.139187049865722656e+01
-3.384114074707031250e+01 1.828571701049804688e+01 -1.234523296356201172e+01 1.828571701049804688e+01 -2.933774566650390625e+01 1.540725517272949219e+01 -1.234523296356201172e+01 1.540725517272949219e+01 -3.389580154418945312e+01