1.835000038146972656e+01 0.000000000000000000e+00 0.000000000000000000e+00 -1.909999996423721313e-01 1.851899909973144531e+01 0.000000000000000000e+00 -3.829999864101409912e-01 -3.720000088214874268e-01 1.827599906921386719e+01
1.845499992370605469e+01 0.000000000000000000e+00 0.000000000000000000e+00 -1.920000016689300537e-01 1.862400054931640625e+01 0.000000000000000000e+00 -3.849999904632568359e-01 -3.740000128746032715e-01 1.838100051879882812e+01
1.856500053405761719e+01 0.000000000000000000e+00 0.000000000000000000e+00 -1.930000036954879761e-01 1.873500061035156250e+01 0.000000000000000000e+00 -3.869999945163726807e-01 -3.770000040531158447e-01 1.848999977111816406e+01
1.874900054931640625e+01 0.000000000000000000e+00 0.000000000000000000e+00 -1.949999928474426270e-01 1.892099952697753906e+01 0.000000000000000000e+00 -3.910000026226043701e-01 -3.799999952316284180e-01 1.867300033569335938e+01
1.880800056457519531e+01 0.000000000000000000e+00 0.000000000000000000e+00 -1.959999948740005493e-01 1.898100090026855469e+01 0.000000000000000000e+00 -3.919999897480010986e-01 -3.819999992847442627e-01 1.873200035095214844e+01
1.840800094604492188e+01 0.000000000000000000e+00 0.000000000000000000e+00 -1.920000016689300537e-01 1.857699966430664062e+01 0.000000000000000000e+00 -3.840000033378601074e-01 -3.729999959468841553e-01 1.833399963378906250e+01
1.842499923706054688e+01 0.000000000000000000e+00 0.000000000000000000e+00 -1.920000016689300537e-01 1.859399986267089844e+01 0.000000000000000000e+00 -3.840000033378601074e-01 -3.740000128746032715e-01 1.835000038146972656e+01
1.853499984741210938e+01 0.000000000000000000e+00 0.000000000000000000e+00 -1.930000036954879761e-01 1.870499992370605469e+01 0.000000000000000000e+00 -3.869999945163726807e-01 -3.759999871253967285e-01 1.845999908447265625e+01
1.780299949645996094e+01 0.000000000000000000e+00 0.000000000000000000e+00 1.840000003576278687e-01 1.828100013732910156e+01 0.000000000000000000e+00 2.750000059604644775e-01 1.539999991655349731e-01 1.864100074768066406e+01
1.844700050354003906e+01 0.000000000000000000e+00 0.000000000000000000e+00 1.909999996423721313e-01 1.894199943542480469e+01 0.000000000000000000e+00 2.849999964237213135e-01 1.589999943971633911e-01 1.931399917602539062e+01
1.861499977111816406e+01 0.000000000000000000e+00 0.000000000000000000e+00 1.920000016689300537e-01 1.911499977111816406e+01 0.000000000000000000e+00 2.879999876022338867e-01 1.609999984502792358e-01 1.949099922180175781e+01
1.800099945068359375e+01 0.000000000000000000e+00 0.000000000000000000e+00 1.860000044107437134e-01 1.848500061035156250e+01 0.000000000000000000e+00 2.779999971389770508e-01 1.550000011920928955e-01 1.884799957275390625e+01
1.802599906921386719e+01 0.000000000000000000e+00 0.000000000000000000e+00 1.860000044107437134e-01 1.851000022888183594e+01 0.000000000000000000e+00 2.790000140666961670e-01 1.560000032186508179e-01 1.887400054931640625e+01
1.946599960327148438e+01 0.000000000000000000e+00 0.000000000000000000e+00 1.580000072717666626e-01 1.888699913024902344e+01 0.000000000000000000e+00 1.140000000596046448e-01 2.329999953508377075e-01 1.868499946594238281e+01
1.898900032043457031e+01 0.000000000000000000e+00 0.000000000000000000e+00 1.539999991655349731e-01 1.842300033569335938e+01 0.000000000000000000e+00 1.110000014305114746e-01 2.280000001192092896e-01 1.822699928283691406e+01
1.887500000000000000e+01 0.000000000000000000e+00 0.000000000000000000e+00 1.539999991655349731e-01 1.831299972534179688e+01 0.000000000000000000e+00 1.099999994039535522e-01 2.259999960660934448e-01 1.811800003051757812e+01
1.838299942016601562e+01 0.000000000000000000e+00 0.000000000000000000e+00 3.650000095367431641e-01 1.883200073242187500e+01 0.000000000000000000e+00 -2.280000001192092896e-01 3.700000047683715820e-02 1.814100074768066406e+01
1.892399978637695312e+01 0.000000000000000000e+00 0.000000000000000000e+00 3.750000000000000000e-01 1.938699913024902344e+01 0.000000000000000000e+00 -2.349999994039535522e-01 3.900000080466270447e-02 1.867499923706054688e+01
1.844599914550781250e+01 0.000000000000000000e+00 0.000000000000000000e+00 3.659999966621398926e-01 1.889699935913085938e+01 0.000000000000000000e+00 -2.290000021457672119e-01 3.799999877810478210e-02 1.820299911499023438e+01
1.856200027465820312e+01 0.000000000000000000e+00 0.000000000000000000e+00 0.000000000000000000e+00 1.856200027465820312e+01 0.000000000000000000e+00 0.000000000000000000e+00 0.000000000000000000e+00 1.856200027465820312e+01
1.868099975585937500e+01 0.000000000000000000e+00 0.000000000000000000e+00 0.000000000000000000e+00 1.868099975585937500e+01 0.000000000000000000e+00 0.000000000000000000e+00 0.000000000000000000e+00 1.868099975585937500e+01
1.885700035095214844e+01 0.000000000000000000e+00 0.000000000000000000e+00 0.000000000000000000e+00 1.885700035095214844e+01 0.000000000000000000e+00 0.000000000000000000e+00 0.000000000000000000e+00 1.885700035095214844e+01
1.876199913024902344e+01 0.000000000000000000e+00 0.000000000000000000e+00 0.000000000000000000e+00 1.876199913024902344e+01 0.000000000000000000e+00 0.000000000000000000e+00 0.000000000000000000e+00 1.876199913024902344e+01
1.886199951171875000e+01 0.000000000000000000e+00 0.000000000000000000e+00 0.000000000000000000e+00 1.886199951171875000e+01 0.000000000000000000e+00 0.000000000000000000e+00 0.000000000000000000e+00 1.886199951171875000e+01
1.902000045776367188e+01 0.000000000000000000e+00 0.000000000000000000e+00 0.000000000000000000e+00 1.902000045776367188e+01 0.000000000000000000e+00 0.000000000000000000e+00 0.000000000000000000e+00 1.902000045776367188e+01
1.879800033569335938e+01 0.000000000000000000e+00 0.000000000000000000e+00 0.000000000000000000e+00 1.879800033569335938e+01 0.000000000000000000e+00 0.000000000000000000e+00 0.000000000000000000e+00 1.879800033569335938e+01
1.880200004577636719e+01 0.000000000000000000e+00 0.000000000000000000e+00 0.000000000000000000e+00 1.880200004577636719e+01 0.000000000000000000e+00 0.000000000000000000e+00 0.000000000000000000e+00 1.880200004577636719e+01
1.892300033569335938e+01 0.000000000000000000e+00 0.000000000000000000e+00 0.000000000000000000e+00 1.892300033569335938e+01 0.000000000000000000e+00 0.000000000000000000e+00 0.000000000000000000e+00 1.892300033569335938e+01
1.843099975585937500e+01 0.000000000000000000e+00 0.000000000000000000e+00 0.000000000000000000e+00 1.843099975585937500e+01 0.000000000000000000e+00 0.000000000000000000e+00 0.000000000000000000e+00 1.843099975585937500e+01
1.778400039672851562e+01 0.000000000000000000e+00 0.000000000000000000e+00 3.970000147819519043e-01 1.860000038146972656e+01 0.000000000000000000e+00 3.519999980926513672e-01 1.200000010430812836e-02 1.847200012207031250e+01
1.831900024414062500e+01 0.000000000000000000e+00 0.000000000000000000e+00 4.090000092983245850e-01 1.915900039672851562e+01 0.000000000000000000e+00 3.630000054836273193e-01 1.300000026822090149e-02 1.902799987792968750e+01
1.793600082397460938e+01 0.000000000000000000e+00 0.000000000000000000e+00 4.000000059604644775e-01 1.875799942016601562e+01 0.000000000000000000e+00 3.549999892711639404e-01 1.300000026822090149e-02 1.862999916076660156e+01
1.896899986267089844e+01 0.000000000000000000e+00 0.000000000000000000e+00 -1.030000001192092896e-01 1.845499992370605469e+01 0.000000000000000000e+00 5.429999828338623047e-01 5.600000172853469849e-02 1.861899948120117188e+01
1.890099906921386719e+01 0.000000000000000000e+00 0.000000000000000000e+00 -1.019999980926513672e-01 1.838899993896484375e+01 0.000000000000000000e+00 5.410000085830688477e-01 5.600000172853469849e-02 1.855200004577636719e+01
1.901499938964843750e+01 0.000000000000000000e+00 0.000000000000000000e+00 -1.030000001192092896e-01 1.849900054931640625e+01 0.000000000000000000e+00 5.440000295639038086e-01 5.600000172853469849e-02 1.866399955749511719e+01
1.890299987792968750e+01 0.000000000000000000e+00 0.000000000000000000e+00 -1.019999980926513672e-01 1.838999938964843750e+01 0.000000000000000000e+00 5.410000085830688477e-01 5.600000172853469849e-02 1.855400085449218750e+01
1.871800041198730469e+01 0.000000000000000000e+00 0.000000000000000000e+00 -1.010000035166740417e-01 1.820999908447265625e+01 0.000000000000000000e+00 5.360000133514404297e-01 5.600000172853469849e-02 1.837299919128417969e+01
1.882099914550781250e+01 0.000000000000000000e+00 0.000000000000000000e+00 -1.019999980926513672e-01 1.830999946594238281e+01 0.000000000000000000e+00 5.389999747276306152e-01 5.600000172853469849e-02 1.847299957275390625e+01
1.900399971008300781e+01 0.000000000000000000e+00 0.000000000000000000e+00 -1.030000001192092896e-01 1.848800086975097656e+01 0.000000000000000000e+00 5.440000295639038086e-01 5.600000172853469849e-02 1.865299987792968750e+01
1.895000076293945312e+01 0.000000000000000000e+00 0.000000000000000000e+00 -2.599999904632568359e-01 1.832600021362304688e+01 0.000000000000000000e+00 1.239999979734420776e-01 3.479999899864196777e-01 1.804899978637695312e+01
1.887000083923339844e+01 0.000000000000000000e+00 0.000000000000000000e+00 -2.590000033378601074e-01 1.824900054931640625e+01 0.000000000000000000e+00 1.230000033974647522e-01 3.470000028610229492e-01 1.797299957275390625e+01
1.906599998474121094e+01 0.000000000000000000e+00 0.000000000000000000e+00 -2.610000073909759521e-01 1.843899917602539062e+01 0.000000000000000000e+00 1.239999979734420776e-01 3.510000109672546387e-01 1.815900039672851562e+01
1.777199935913085938e+01 0.000000000000000000e+00 0.000000000000000000e+00 -3.600000143051147461e-01 1.835400009155273438e+01 0.000000000000000000e+00 -4.899999871850013733e-02 -8.100000023841857910e-02 1.798699951171875000e+01
1.840099906921386719e+01 0.000000000000000000e+00 0.000000000000000000e+00 -3.729999959468841553e-01 1.900300025939941406e+01 0.000000000000000000e+00 -5.099999904632568359e-02 -8.399999886751174927e-02 1.862299919128417969e+01
1.844300079345703125e+01 0.000000000000000000e+00 0.000000000000000000e+00 -3.729999959468841553e-01 1.904599952697753906e+01 0.000000000000000000e+00 -5.099999904632568359e-02 -8.399999886751174927e-02 1.866600036621093750e+01
1.827199935913085938e+01 0.000000000000000000e+00 0.000000000000000000e+00 -3.700000047683715820e-01 1.887000083923339844e+01 0.000000000000000000e+00 -5.099999904632568359e-02 -8.299999684095382690e-02 1.849300003051757812e+01
1.832699966430664062e+01 0.000000000000000000e+00 0.000000000000000000e+00 -3.709999918937683105e-01 1.892700004577636719e+01 0.000000000000000000e+00 -5.099999904632568359e-02 -8.299999684095382690e-02 1.854899978637695312e+01
1.836300086975097656e+01 0.000000000000000000e+00 0.000000000000000000e+00 -3.720000088214874268e-01 1.896400070190429688e+01 0.000000000000000000e+00 -5.099999904632568359e-02 -8.399999886751174927e-02 1.858499908447265625e+01
1.845700073242187500e+01 0.000000000000000000e+00 0.000000000000000000e+00 -2.240000069141387939e-01 1.775799942016601562e+01 0.000000000000000000e+00 4.029999971389770508e-01 -3.109999895095825195e-01 1.814100074768066406e+01
1.883399963378906250e+01 0.000000000000000000e+00 0.000000000000000000e+00 -2.280000001192092896e-01 1.812000083923339844e+01 0.000000000000000000e+00 4.110000133514404297e-01 -3.170000016689300537e-01 1.851099967956542969e+01
1.893400001525878906e+01 0.000000000000000000e+00 0.000000000000000000e+00 -2.300000041723251343e-01 1.821599960327148438e+01 0.000000000000000000e+00 4.129999876022338867e-01 -3.190000057220458984e-01 1.860899925231933594e+01
1.892200088500976562e+01 0.000000000000000000e+00 0.000000000000000000e+00 -2.300000041723251343e-01 1.820499992370605469e+01 0.000000000000000000e+00 4.129999876022338867e-01 -3.190000057220458984e-01 1.859700012207031250e+01
1.905900001525878906e+01 0.000000000000000000e+00 0.000000000000000000e+00 -2.310000061988830566e-01 1.833600044250488281e+01 0.000000000000000000e+00 4.160000085830688477e-01 -3.210000097751617432e-01 1.873200035095214844e+01
1.900799942016601562e+01 0.000000000000000000e+00 0.000000000000000000e+00 -2.310000061988830566e-01 1.828800010681152344e+01 0.000000000000000000e+00 4.149999916553497314e-01 -3.199999928474426270e-01 1.868199920654296875e+01
1.889900016784667969e+01 0.000000000000000000e+00 0.000000000000000000e+00 -2.290000021457672119e-01 1.818300056457519531e+01 0.000000000000000000e+00 4.120000004768371582e-01 -3.179999887943267822e-01 1.857500076293945312e+01
1.914599990844726562e+01 0.000000000000000000e+00 0.000000000000000000e+00 -2.319999933242797852e-01 1.842000007629394531e+01 0.000000000000000000e+00 4.180000126361846924e-01 -3.219999969005584717e-01 1.881699943542480469e+01
1.884300041198730469e+01 0.000000000000000000e+00 0.000000000000000000e+00 -2.290000021457672119e-01 1.812899971008300781e+01 0.000000000000000000e+00 4.110000133514404297e-01 -3.170000016689300537e-01 1.852000045776367188e+01
1.909900093078613281e+01 0.000000000000000000e+00 0.000000000000000000e+00 -2.319999933242797852e-01 1.837599945068359375e+01 0.000000000000000000e+00 4.169999957084655762e-01 -3.219999969005584717e-01 1.877199935913085938e+01
1.902700042724609375e+01 0.000000000000000000e+00 0.000000000000000000e+00 -2.310000061988830566e-01 1.830599975585937500e+01 0.000000000000000000e+00 4.149999916553497314e-01 -3.199999928474426270e-01 1.870000076293945312e+01
1.866699981689453125e+01 0.000000000000000000e+00 0.000000000000000000e+00 -2.259999960660934448e-01 1.795999908447265625e+01 0.000000000000000000e+00 4.070000052452087402e-01 -3.140000104904174805e-01 1.834700012207031250e+01
1.902199935913085938e+01 0.000000000000000000e+00 0.000000000000000000e+00 -2.310000061988830566e-01 1.830100059509277344e+01 0.000000000000000000e+00 4.149999916553497314e-01 -3.199999928474426270e-01 1.869499969482421875e+01
1.877499961853027344e+01 0.000000000000000000e+00 0.000000000000000000e+00 -2.280000001192092896e-01 1.806299972534179688e+01 0.000000000000000000e+00 4.099999964237213135e-01 -3.160000145435333252e-01 1.845299911499023438e+01
1.879100036621093750e+01 0.000000000000000000e+00 0.000000000000000000e+00 -2.280000001192092896e-01 1.807900047302246094e+01 0.000000000000000000e+00 4.099999964237213135e-01 -3.160000145435333252e-01 1.846899986267089844e+01
