5.332757949829101562e+00 4.383273124694824219e+00 3.594444990158081055e+00 7.310828208923339844e+00 1.762483000755310059e+00 1.109041500091552734e+01 4.992378234863281250e+00 3.941003084182739258e+00 1.460721492767333984e+01 3.062427997589111328e+00 3.600253105163574219e+00 1.184231472015380859e+01 5.189457893371582031e+00 6.770402908325195312e+00 8.050054550170898438e+00 9.425638198852539062e+00 9.144433021545410156e+00 1.579131507873535156e+01 9.740338325500488281e+00 1.497165298461914062e+01 1.416671466827392578e+01 1.612323760986328125e+01 8.657133102416992188e+00 3.474065065383911133e+00 1.483220010995864868e-01 9.200942993164062500e+00 9.398955345153808594e+00 8.601048469543457031e+00 5.044192790985107422e+00 6.571014881134033203e+00 3.315600007772445679e-02 8.818179965019226074e-01 5.112705230712890625e+00 4.942048072814941406e+00 9.314002990722656250e+00 3.366864919662475586e+00 4.302258014678955078e+00 6.161192893981933594e+00 1.780041503906250000e+01 1.027858018875122070e+00 1.235535335540771484e+01 1.960204958915710449e+00 1.331353759765625000e+01 6.332962989807128906e+00 6.471994876861572266e+00 3.933648109436035156e+00 1.657685279846191406e+01 2.920015096664428711e+00 1.443093776702880859e+01 3.703382968902587891e+00 1.560551452636718750e+01 1.736443710327148438e+01 1.281725311279296875e+01 1.185701465606689453e+01 2.622698068618774414e+00 1.458875274658203125e+01 7.703754901885986328e+00 1.242586016654968262e+00 1.516512989997863770e+00 1.693391418457031250e+01 1.681028008460998535e+00 2.933522939682006836e+00 2.257194995880126953e+00 5.508897781372070312e+00 1.806715393066406250e+01 1.396671485900878906e+01 1.021004772186279297e+01 1.045949268341064453e+01 1.084812998771667480e+00 4.092448234558105469e+00 1.657465362548828125e+01 1.005144500732421875e+01 1.664438009262084961e+00 9.269473075866699219e+00 1.470131492614746094e+01 6.995697975158691406e+00 1.003523254394531250e+01 8.188204765319824219e+00 4.983148097991943359e+00 1.207275295257568359e+01 6.601840257644653320e-01 1.310943794250488281e+01 1.346205329895019531e+01 1.531411457061767578e+01 1.690823745727539062e+01 5.189133167266845703e+00 8.825295448303222656e+00 1.114913845062255859e+01 1.772645378112792969e+01 4.799725055694580078e+00 9.977948188781738281e+00 1.050985336303710938e+01 1.148721504211425781e+01 8.019938468933105469e+00 1.319365310668945312e+01 5.653399974107742310e-02 4.308688163757324219e+00 1.193975257873535156e+01 1.052181529998779297e+01 1.731363868713378906e+01 1.344165325164794922e+01 6.609435081481933594e+00 7.339407920837402344e+00 6.075182914733886719e+00 1.150431537628173828e+01 1.355333805084228516e+01 1.771595382690429688e+01 1.408741474151611328e+01 8.368078231811523438e+00 1.388535308837890625e+01 1.016458511352539062e+01 9.851310253143310547e-01 6.092442989349365234e+00 1.336781501770019531e+01 2.593548059463500977e+00 1.669155311584472656e+01 1.699431419372558594e+01 6.742998123168945312e+00 1.377345275878906250e+01 5.144744873046875000e+00 2.758997917175292969e+00 3.593282938003540039e+00 7.932495117187500000e+00 1.073073768615722656e+01 3.047393083572387695e+00 7.991135120391845703e+00 7.533587932586669922e+00 1.716665267944335938e+01 8.322565078735351562e+00 1.372163772583007812e+01 1.319325256347656250e+01 9.743855476379394531e+00 1.515187978744506836e+00 5.909462928771972656e+00 4.913784980773925781e+00 1.329783821105957031e+01 9.259742736816406250e+00 1.677834987640380859e+00 1.028541755676269531e+01 1.296495342254638672e+01 5.304765224456787109e+00 9.381748199462890625e+00 3.210830092430114746e-01 1.383891487121582031e+01 1.226253795623779297e+01 5.133633136749267578e+00 9.229760169982910156e-01 1.117423820495605469e+01 6.817722797393798828e+00 1.049549484252929688e+01 9.020137786865234375e+00 8.980043411254882812e+00 4.964924812316894531e+00 5.336358070373535156e+00 2.427333116531372070e+00 4.473200142383575439e-01 1.360413837432861328e+01 1.304335308074951172e+01 3.008194923400878906e+00 1.190753841400146484e+01 4.582572937011718750e+00 1.197171497344970703e+01 1.144393825531005859e+01 1.676975250244140625e+01 1.021256542205810547e+01 1.730923843383789062e+01 6.282793045043945312e+00 1.820261573791503906e+01 5.830557823181152344e+00 1.885493040084838867e+00 6.788915157318115234e+00 1.418163776397705078e+01 2.281462907791137695e+00 8.094895362854003906e+00 4.948468208312988281e+00 9.535862922668457031e+00 1.544461536407470703e+01 1.115373802185058594e+01 1.555815315246582031e+01 7.800509929656982422e-01 7.974348068237304688e+00 1.812055206298828125e+01 7.895560264587402344e-01 1.135473823547363281e+01 3.222492933273315430e+00 3.366605043411254883e+00 1.654113769531250000e+01 1.097005271911621094e+01 1.678891563415527344e+01 1.605803871154785156e+01 2.929642915725708008e+00 1.246851539611816406e+01 1.732983779907226562e+01 1.655865287780761719e+01 1.160811519622802734e+01 8.433238029479980469e+00 4.069383144378662109e+00 1.667701530456542969e+01 1.572217941284179688e+00 9.741362571716308594e+00 6.050865173339843750e+00 1.612483787536621094e+01 4.007402896881103516e+00 3.868705034255981445e+00 1.741413879394531250e+01 1.297523975372314453e+00 8.141855239868164062e+00 1.538873767852783203e+01 1.013485336303710938e+01 7.720644950866699219e+00 1.645233726501464844e+01 -2.767539918422698975e-01 1.632501411437988281e+01 1.614093780517578125e+01 9.305172920227050781e+00 1.295491504669189453e+01 1.761253738403320312e+01 1.597585296630859375e+01 2.774635076522827148e+00 1.455653762817382812e+01 1.725455284118652344e+01 9.739205360412597656e+00 1.177663803100585938e+01 1.082535266876220703e+01 6.803925037384033203e+00 1.758813858032226562e+01 1.427695274353027344e+01 1.613331413269042969e+01 1.386203765869140625e+01 1.635505294799804688e+01 5.649475097656250000e+00 1.028474807739257812e+01 8.393610119819641113e-01 1.737611579895019531e+01 1.810618042945861816e+00 4.960640072822570801e-01 1.336471462249755859e+01 1.326583766937255859e+01 9.439502716064453125e+00 1.558761501312255859e+01 4.151817798614501953e+00 1.406415271759033203e+01 1.494111537933349609e+01 1.470643806457519531e+01 1.752095222473144531e+01 2.252125024795532227e+00 9.854379892349243164e-01 1.753705215454101562e+01 9.559405326843261719e+00 3.705817937850952148e+00 1.060973048210144043e+00 1.576761531829833984e+01 3.567738056182861328e+00 6.749352931976318359e+00 2.256264925003051758e+00 4.283577919006347656e+00 9.485483169555664062e+00 8.575434684753417969e+00 3.666268110275268555e+00 7.000082969665527344e+00 1.415991497039794922e+01 1.104436039924621582e+00 1.203105258941650391e+01 9.017635345458984375e+00 1.641738057136535645e+00 1.274655342102050781e+01 1.704711532592773438e+01 3.269397974014282227e+00 1.424055290222167969e+01 3.758009970188140869e-01 1.758563804626464844e+01 4.551370143890380859e-01 1.508205056190490723e+00 6.047728061676025391e+00 6.361190080642700195e-01 3.818675041198730469e+00 5.420427799224853516e+00 4.256893157958984375e+00 9.431144714355468750e+00 7.608168125152587891e+00 4.202982902526855469e+00 9.153164863586425781e+00 7.348427772521972656e+00 6.400139927864074707e-01 1.628911590576171875e+01 7.001547813415527344e+00 6.963422775268554688e+00 1.543131542205810547e+01 7.777378082275390625e+00 1.178795337677001953e+01 3.113724946975708008e+00 5.515677928924560547e+00 1.671285247802734375e+01 6.201375007629394531e+00 5.372528076171875000e+00 1.452795314788818359e+01 1.232271480560302734e+01 1.290523815155029297e+01 -1.679299958050251007e-02 7.538115024566650391e+00 1.223923778533935547e+01 1.798763036727905273e+00 1.470161533355712891e+01 1.374693775177001953e+01 6.200343132019042969e+00 3.206404924392700195e+00 1.035891819000244141e+01 5.799733161926269531e+00 4.093265056610107422e+00 1.344503784179687500e+01 5.749473094940185547e+00 9.055635452270507812e+00 9.932567596435546875e+00 1.131805324554443359e+01 8.496825218200683594e+00 1.007441806793212891e+01 7.721363067626953125e+00 1.327041530609130859e+01 1.013857841491699219e+01 1.295505332946777344e+01 1.677751541137695312e+01 1.301423835754394531e+01 1.115455341339111328e+01 1.806011581420898438e+01 1.152483844757080078e+01 1.793655204772949219e+01 2.035204887390136719e+00 8.459577560424804688e+00 1.662015342712402344e+01 1.134301471710205078e+01 2.717910110950469971e-01 3.435733079910278320e+00 5.715264797210693359e+00 9.358900040388107300e-02 2.844372987747192383e+00 1.075731468200683594e+01 1.692523765563964844e+01 2.949433088302612305e+00 1.785691452026367188e+01 1.239400029182434082e+00 8.959242820739746094e+00 3.167195081710815430e+00 1.611163711547851562e+01 7.987382888793945312e+00 1.029685497283935547e+01 1.658483886718750000e+01 8.257843017578125000e+00 1.553801536560058594e+01 1.621803855895996094e+01 1.415275287628173828e+01 3.806755065917968750e+00 1.421593761444091797e+01 1.214185333251953125e+01 6.085364818572998047e+00 1.548063755035400391e+01 1.515055274963378906e+01 1.392531490325927734e+01 1.441473770141601562e+01 1.483035278320312500e+01 1.189281463623046875e+01 1.639993858337402344e+01 2.253633022308349609e+00 1.133051991462707520e+00 3.680207967758178711e+00 4.904082775115966797e+00 1.327988028526306152e+00 1.895398020744323730e+00 2.203032970428466797e+00 5.844045162200927734e+00 1.320830941200256348e+00 1.718942999839782715e+00 9.426204681396484375e+00 1.656863784790039062e+01 2.650453090667724609e+00 1.015406513214111328e+01 2.067918062210083008e+00 -1.603379994630813599e-01 1.563621520996093750e+01 4.267938137054443359e+00 1.334748029708862305e+00 1.380391502380371094e+01 3.507188081741333008e+00 2.776362895965576172e+00 1.677681541442871094e+01 4.840147972106933594e+00 1.814095306396484375e+01 1.656261444091796875e+01 1.703217983245849609e+00 7.436842918395996094e+00 1.664455056190490723e+00 4.732567787170410156e+00 8.131492614746093750e+00 1.480286002159118652e+00 3.877268075942993164e+00 6.170163154602050781e+00 4.140725135803222656e+00 4.674620032310485840e-01 8.068633079528808594e+00 4.840674877166748047e+00 2.949987888336181641e+00 8.146343231201171875e+00 8.576435089111328125e+00 3.068877935409545898e+00 4.973722934722900391e+00 1.375211524963378906e+01 3.492647886276245117e+00 7.801242828369140625e+00 1.588271522521972656e+01 3.319168090820312500e+00 1.307585334777832031e+01 2.021805047988891602e+00 2.768578052520751953e+00 1.005574321746826172e+01 3.817275047302246094e+00 -1.145289987325668335e-01 1.381425285339355469e+01 3.686034917831420898e+00 3.713720142841339111e-01 1.389505290985107422e+01 8.746925354003906250e+00 3.231398105621337891e+00 1.169955253601074219e+01 8.583865165710449219e+00 1.034641027450561523e+00 1.154505252838134766e+01 1.101661491394042969e+01 5.570208072662353516e+00 9.840292930603027344e+00 1.012411499023437500e+01 2.881377935409545898e+00 1.123295307159423828e+01 1.677831459045410156e+01 -1.187950000166893005e-01 1.221095275878906250e+01 1.788061523437500000e+01 1.131448984146118164e+00 8.983659744262695312e-01 1.506404995918273926e+00 1.206249967217445374e-01 1.070745277404785156e+01 7.819825172424316406e+00 2.240427970886230469e+00 1.732535362243652344e+01 8.149475097656250000e+00 1.500890016555786133e+00 1.694865226745605469e+01 1.134471511840820312e+01 1.644013786315917969e+01 1.331265258789062500e+01 1.428051471710205078e+01 1.536177992820739746e+00 1.433685302734375000e+01 1.581631469726562500e+01 7.633728027343750000e+00 1.707803010940551758e+00 1.781031417846679688e+01 5.150688171386718750e+00 2.351392984390258789e+00 2.905014991760253906e+00 7.445588111877441406e+00 1.436754941940307617e+00 4.845614910125732422e+00 4.975937843322753906e+00 4.544572830200195312e+00 7.314935207366943359e+00 4.926047801971435547e+00 2.491733074188232422e+00 1.014321517944335938e+01 4.711167812347412109e+00 5.657662868499755859e+00 1.064761543273925781e+01 8.284507751464843750e+00 2.745532989501953125e+00 7.931654930114746094e+00 7.381068229675292969e+00 2.005112886428833008e+00 1.475761508941650391e+01 9.966217994689941406e+00 5.091272830963134766e+00 2.256274938583374023e+00 9.406997680664062500e+00 1.053825283050537109e+01 3.171964883804321289e+00 8.759508132934570312e+00 6.881732940673828125e+00 4.712084770202636719e+00 5.312757968902587891e+00 9.623923301696777344e+00 6.859644889831542969e+00 7.757008075714111328e+00 6.108922958374023438e+00 8.566764831542968750e+00 8.205747604370117188e+00 3.856292963027954102e+00 1.109991455078125000e+01 5.924287796020507812e+00 7.070433139801025391e+00 1.368791484832763672e+01 6.259218215942382812e+00 5.335342884063720703e+00 1.645891571044921875e+01 7.005368232727050781e+00 8.772212982177734375e+00 1.626361465454101562e+01 6.869448184967041016e+00 1.160155296325683594e+01 1.301424026489257812e+00 6.396267890930175781e+00 1.116595268249511719e+01 4.447535037994384766e+00 9.299898147583007812e+00 9.905363082885742188e+00 7.169984817504882812e+00 5.283887863159179688e+00 1.469105339050292969e+01 1.035332489013671875e+01 9.060888290405273438e+00 7.555943012237548828e+00 1.156351470947265625e+01 4.590437889099121094e+00 1.435095310211181641e+01 1.766141510009765625e+01 4.384548187255859375e+00 1.501215267181396484e+01 5.756285190582275391e+00 6.332218170166015625e+00 1.745565223693847656e+01 2.535224914550781250e+00 4.368758201599121094e+00 1.811995315551757812e+01 4.844474792480468750e+00 7.440507888793945312e+00 1.657635307312011719e+01 5.820815086364746094e+00 5.161268234252929688e+00 1.764235305786132812e+01 8.036125183105468750e+00 1.005454826354980469e+01 1.715995216369628906e+01 1.247201538085937500e+01 4.522888183593750000e+00 1.599345302581787109e+01 1.328931522369384766e+01 7.698078155517578125e+00 1.485455322265625000e+01 1.254861545562744141e+01 5.063467979431152344e+00 1.267655277252197266e+01 1.298131465911865234e+01 8.346918106079101562e+00 1.757005310058593750e+01 1.623361587524414062e+01 2.752537965774536133e+00 1.607075309753417969e+01 8.352439999580383301e-01 1.358533763885498047e+01 4.173653125762939453e+00 2.914865016937255859e+00 1.070583820343017578e+01 4.374473094940185547e+00 5.437594890594482422e+00 1.471523761749267578e+01 1.815475273132324219e+01 7.322814941406250000e+00 1.261783790588378906e+01 7.146900296211242676e-01 9.384374618530273438e+00 1.156473827362060547e+01 2.754913091659545898e+00 1.651831436157226562e+01 1.168773841857910156e+01 -1.979089975357055664e-01 1.488911533355712891e+01 1.208103847503662109e+01 7.119012832641601562e+00 4.352875232696533203e+00 1.274773788452148438e+01 7.500062942504882812e+00 8.416364669799804688e+00 1.192283821105957031e+01 6.800433158874511719e+00 1.295741462707519531e+01 1.193643760681152344e+01 4.554842948913574219e+00 9.710965156555175781e+00 1.019808769226074219e+01 9.791732788085937500e+00 1.378691482543945312e+01 8.924867630004882812e+00 6.482953071594238281e+00 1.494701480865478516e+01 1.377113819122314453e+01 7.042542934417724609e+00 1.335072994232177734e+00 1.446153831481933594e+01 1.141775321960449219e+01 1.395668983459472656e+00 8.534367561340332031e+00 1.373805332183837891e+01 3.570004940032958984e+00 1.295373821258544922e+01 1.354735279083251953e+01 5.439294815063476562e+00 1.371013832092285156e+01 1.025051307678222656e+01 6.254364967346191406e+00 1.021893787384033203e+01 1.307375335693359375e+01 7.589145183563232422e+00 1.175573825836181641e+01 1.096885299682617188e+01 9.209324836730957031e+00 1.202283763885498047e+01 9.464073181152343750e+00 1.749651527404785156e+01 9.142078399658203125e+00 1.119175338745117188e+01 1.722281455993652344e+01 1.219483757019042969e+01 1.334745311737060547e+01 1.087479963898658752e-01 1.266073799133300781e+01 1.723845291137695312e+01 3.934569954872131348e-01 1.009956836700439453e+01 1.663075256347656250e+01 2.972465038299560547e+00 1.293343830108642578e+01 1.828245353698730469e+01 3.524704933166503906e+00 1.238943767547607422e+01 1.631592988967895508e+00 6.369444847106933594e+00 8.423357963562011719e+00 1.155585289001464844e+01 1.007613468170166016e+01 6.855487823486328125e+00 1.773155212402343750e+01 1.100161457061767578e+01 9.164197921752929688e+00 1.582855319976806641e+01 9.721775054931640625e+00 9.105028152465820312e+00 1.467905330657958984e+01 1.737151527404785156e+01 1.154153823852539062e+01 2.457082986831665039e+00 1.297901535034179688e+01 1.086343765258789062e+01 1.280915260314941406e+01 1.496441459655761719e+01 1.073373794555664062e+01 1.124709010124206543e+00 1.474658966064453125e+00 1.735113716125488281e+01 1.827833056449890137e+00 1.610971450805664062e+01 2.067169994115829468e-01 4.265112876892089844e+00 3.861145019531250000e+00 1.678273773193359375e+01 2.672733068466186523e+00 5.939004898071289062e+00 1.448433780670166016e+01 4.813693046569824219e+00 7.752564907073974609e+00 9.086560010910034180e-01 4.704312801361083984e+00 1.083431529998779297e+01 2.292529940605163574e-01 3.939852952957153320e+00 1.825081443786621094e+01 1.547033786773681641e+01 4.330402851104736328e+00 1.746341514587402344e+01 1.427153778076171875e+01 1.713103055953979492e+00 1.435241508483886719e+01 1.546863842010498047e+01 6.373272895812988281e+00 4.249135017395019531e+00 1.813733863830566406e+01 1.007358264923095703e+01 2.196885108947753906e+00 6.105700135231018066e-01 4.935142993927001953e+00 7.055085182189941406e+00 1.687433815002441406e+01 7.661293029785156250e+00 8.458584785461425781e+00 1.461703777313232422e+01 6.346423149108886719e+00 1.081021499633789062e+01 -2.257999964058399200e-02 2.033242940902709961e+00 1.269931507110595703e+01 1.770263862609863281e+01 7.858082771301269531e+00 1.162421512603759766e+01 1.487033843994140625e+01 7.980123043060302734e+00 1.424961471557617188e+01 1.792933845520019531e+01 6.734632968902587891e+00 1.551491546630859375e+01 2.332478046417236328e+00 8.048572540283203125e+00 1.286671543121337891e+01 1.602603721618652344e+01 8.540522575378417969e+00 1.744171524047851562e+01 1.537103843688964844e+01 1.456825256347656250e+01 2.040364980697631836e+00 1.551063823699951172e+01 1.215965270996093750e+01 4.362794876098632812e+00 1.509183788299560547e+01 1.261425304412841797e+01 7.898694992065429688e+00 1.500553798675537109e+01 9.587682723999023438e+00 1.071221542358398438e+01 1.310123825073242188e+01 1.348515319824218750e+01 1.181691455841064453e+01 1.600173759460449219e+01 1.461375331878662109e+01 1.068461513519287109e+01 1.759263801574707031e+01 9.891972541809082031e+00 1.462161540985107422e+01 1.413203811645507812e+01 1.151375293731689453e+01 1.632631492614746094e+01 1.676213836669921875e+01 1.823745346069335938e+01 3.313664913177490234e+00 1.595003795623779297e+01 1.535265254974365234e+01 5.495025157928466797e+00 1.180573844909667969e+01 1.680745315551757812e+01 7.131645202636718750e+00 1.744653892517089844e+01 1.761875343322753906e+01 8.940275192260742188e+00 1.378113842010498047e+01 1.680485343933105469e+01 1.182351493835449219e+01 1.689463806152343750e+01 1.672985267639160156e+01 1.400601482391357422e+01 1.399283790588378906e+01 1.553555297851562500e+01 1.538211536407470703e+01 1.681923866271972656e+01 1.756215286254882812e+01 4.990600049495697021e-02