-6.065754296875000000e+04
-6.065463281250000000e+04
-6.065413281250000000e+04
-6.064676953125000000e+04
-6.064497265625000000e+04
-6.064753906250000000e+04
-6.064961328125000000e+04
-6.064907421875000000e+04
-6.065792578125000000e+04
-6.064603515625000000e+04
-6.064162109375000000e+04
-6.064764843750000000e+04
-6.064749609375000000e+04
-6.064199609375000000e+04
-6.064735546875000000e+04
-6.064632421875000000e+04
-6.065840625000000000e+04
-6.064404687500000000e+04
-6.064979296875000000e+04
-6.065551562500000000e+04
-6.064512500000000000e+04
-6.064799218750000000e+04
-6.064285156250000000e+04
-6.064194140625000000e+04
-6.064431250000000000e+04
-6.064722656250000000e+04
-6.064677734375000000e+04
-6.064544531250000000e+04
-6.065162500000000000e+04
-6.066085546875000000e+04
-6.064529687500000000e+04
-6.064710156250000000e+04
-6.065483984375000000e+04
-6.065394921875000000e+04
-6.064547656250000000e+04
-6.064683984375000000e+04
-6.064844140625000000e+04
-6.064750781250000000e+04
-6.064562109375000000e+04
-6.065377734375000000e+04
-6.065016015625000000e+04
-6.064510937500000000e+04
-6.067197656250000000e+04
-6.065392187500000000e+04
-6.064444921875000000e+04
-6.064555468750000000e+04
-6.064874609375000000e+04
-6.064555468750000000e+04
-6.067104296875000000e+04
-6.065535937500000000e+04
-6.065537500000000000e+04
-6.065296093750000000e+04
-6.065436718750000000e+04
-6.065277343750000000e+04
-6.065346484375000000e+04
-6.065520703125000000e+04
-6.065805078125000000e+04
-6.065215234375000000e+04
-6.065328125000000000e+04
-6.065997656250000000e+04
-6.064865625000000000e+04
-6.064607421875000000e+04
-6.064978906250000000e+04
