-8.667703717947006226e-03 6.820443272590637207e-01 1.585908085107803345e-01 -3.592006266117095947e-01 -3.793154060840606689e-01 -1.208490505814552307e-01 1.327121406793594360e-01 -4.045661985874176025e-01 2.576081156730651855e-01 2.841840684413909912e-02 9.663286805152893066e-02 -7.680137753486633301e-01 -1.270294785499572754e-01 2.684016227722167969e-01 4.382805526256561279e-02 -2.172818779945373535e-01 3.304274082183837891e-01 4.961268305778503418e-01 -4.206325113773345947e-02 1.495862901210784912e-01 -5.199388414621353149e-02 8.180319666862487793e-01 -1.178799476474523544e-02 4.664855822920799255e-02 2.940000295639038086e-01 -6.653758287429809570e-01 1.019584417343139648e+00 -1.293933484703302383e-02 1.354416161775588989e-01 -2.774565219879150391e-01 -1.839243918657302856e-01 -3.187345564365386963e-01 -3.034328818321228027e-01 3.340079188346862793e-01 4.434351325035095215e-01 5.530360937118530273e-01 -7.493275403976440430e-02 -1.594084096723236144e-05 2.124754786491394043e-01 -2.094806730747222900e-01 -3.084280192852020264e-01 9.975881403079256415e-05 -1.054394096136093140e-01 1.311622709035873413e-01 -5.244439244270324707e-01 3.522231578826904297e-01 -1.809162199497222900e-01 -1.886562556028366089e-01 -1.263347715139389038e-01 -2.360936254262924194e-01 -4.532546550035476685e-02 9.204705059528350830e-02 -6.690525263547897339e-02 1.197434961795806885e-01 2.887246198952198029e-02 1.985997408628463745e-01 -1.178850978612899780e-01 -7.437322735786437988e-01 6.377267241477966309e-01 6.066940426826477051e-01 -4.290091991424560547e-02 9.757121801376342773e-01 2.563148438930511475e-01 3.303466737270355225e-01 -3.156266212463378906e-01 -1.570512205362319946e-01 -4.762557893991470337e-02 2.424643039703369141e-01 -6.472218036651611328e-01 -4.320780634880065918e-01 5.362910032272338867e-01 -1.458576619625091553e-01 -6.891055703163146973e-01 2.071054577827453613e-01 5.590422153472900391e-01 8.846369981765747070e-01 3.930106461048126221e-01 5.507586002349853516e-01 -1.622270584106445312e+00 4.535143375396728516e-01 -4.179117679595947266e-01 2.493785321712493896e-01 -2.980587780475616455e-01 7.039732486009597778e-02 2.449407875537872314e-01 -2.006915807723999023e-01 -1.461497545242309570e-01 -3.423604369163513184e-01 -3.445278620347380638e-03 5.765565633773803711e-01 4.850797727704048157e-02 -1.267872750759124756e-01 -2.275688648223876953e-01 -1.287150979042053223e-01 2.608780264854431152e-01 7.484482601284980774e-03 3.242742419242858887e-01 2.074042260646820068e-01 7.618204951286315918e-01 1.969619467854499817e-02 1.424602121114730835e-01 3.181385397911071777e-01 -6.136365532875061035e-01 -2.719774842262268066e-01 -8.638958632946014404e-02 2.647526860237121582e-01 -1.196632534265518188e-01 5.153365433216094971e-02 -5.176936984062194824e-01 -9.594133496284484863e-01 2.507108747959136963e-01 -8.251602053642272949e-01 -4.864218831062316895e-02 -9.272941201925277710e-02 1.092132776975631714e-01 -8.996250629425048828e-01 3.831772208213806152e-01 -3.306485116481781006e-01 1.326956748962402344e-01 2.976206503808498383e-02 -5.889158844947814941e-01 -1.341961789876222610e-02 -1.544158458709716797e-01 5.232499241828918457e-01 -3.773006796836853027e-01 -2.764604613184928894e-02 -9.506449848413467407e-02 -4.798450320959091187e-02 -1.320462226867675781e-01 -2.028600499033927917e-02 -4.535729587078094482e-01 -9.503831863403320312e-01 7.655408978462219238e-02 1.517326384782791138e-01 2.102710008621215820e-01 -2.969573251903057098e-02 1.525029391050338745e-01 -4.152995347976684570e-01 -2.905891835689544678e-01 1.178192719817161560e-01 -5.657322406768798828e-01 4.026275873184204102e-01 3.606116473674774170e-01 2.930214703083038330e-01 1.767057627439498901e-01 -2.792084515094757080e-01 6.237908452749252319e-02 -1.338300555944442749e-01 2.750391662120819092e-01 -3.266628384590148926e-01 -3.052928019315004349e-03 1.265287399291992188e+00 -6.509519368410110474e-02 8.831740170717239380e-02 -9.449010342359542847e-02 2.322570085525512695e-01 -8.544393628835678101e-02 2.059361189603805542e-01 1.325259953737258911e-01 -8.647546917200088501e-02 -3.804672658443450928e-01 7.478106021881103516e-01 1.392879933118820190e-01 3.822233080863952637e-01 1.607412695884704590e-01 -1.164488717913627625e-01 -1.181632801890373230e-01 -6.561316847801208496e-01 1.668301522731781006e-01 5.666197743266820908e-03 9.307651221752166748e-02 -9.092347323894500732e-02 1.762491315603256226e-01 -1.253058016300201416e-01 5.326452106237411499e-02 5.333486795425415039e-01 -5.027021467685699463e-02 -2.102566063404083252e-01 1.096323579549789429e-01 4.433281719684600830e-01 1.909064948558807373e-01 1.186682507395744324e-01 5.954902172088623047e-01 -7.937254011631011963e-02 -5.548410415649414062e-01 -1.094071269035339355e-01 3.754736855626106262e-02 -4.185304045677185059e-01 -2.696537375450134277e-01 -1.332494914531707764e-01 -2.934847772121429443e-01 2.472537755966186523e-01 7.495743781328201294e-02 1.854387819766998291e-01 -3.795925900340080261e-02 -1.112207956612110138e-02 -4.641391932964324951e-01 -2.477237582206726074e-01 3.339467346668243408e-01 5.505606532096862793e-02 1.045415699481964111e-01 6.749661173671483994e-03 -1.742061376571655273e-01 -9.608727693557739258e-02 5.234303697943687439e-02 4.026816189289093018e-01 7.988161593675613403e-02 6.106370687484741211e-01 -2.821148633956909180e-01 1.119205951690673828e+00 -2.034832835197448730e-01 -1.606219820678234100e-02 -4.156111180782318115e-01 7.741283625364303589e-02 1.176454648375511169e-01 -6.450868248939514160e-01 3.785769939422607422e-01 4.702116250991821289e-01 -5.081780552864074707e-01 3.386225402355194092e-01 4.851872920989990234e-01 -6.314799785614013672e-01 -1.275938868522644043e+00 1.969192624092102051e-01 5.028697252273559570e-01 -1.674796342849731445e-01 -9.427207522094249725e-03 1.261080056428909302e-01 -2.521887421607971191e-01 1.463245749473571777e-01 1.372347027063369751e-01 5.879846215248107910e-01 -2.103100866079330444e-01 -1.574646532535552979e-01 -1.609361618757247925e-01 8.546039462089538574e-02 -5.394344925880432129e-01 6.957631707191467285e-01 -3.689492344856262207e-01 -7.495718002319335938e-01 -3.321588039398193359e-01 -6.861247122287750244e-02 4.395486712455749512e-01 -1.558644026517868042e-01 -2.723163664340972900e-01 -5.558263063430786133e-01 -1.227512598037719727e+00 1.636812806129455566e+00 -3.117035925388336182e-01 6.129217743873596191e-01 -6.128147840499877930e-01 -1.006884813308715820e+00 7.991709560155868530e-02 -1.878761410713195801e+00 -2.423681467771530151e-01 1.201579451560974121e+00 1.766492128372192383e+00 1.765700131654739380e-01 -1.518048882484436035e+00 -1.372771263122558594e+00 -3.914164304733276367e+00 4.307379722595214844e-01 -6.464551091194152832e-01 1.346139669418334961e+00 3.565750122070312500e-01 1.216380238533020020e+00 1.412158489227294922e+00 2.205893546342849731e-01 -6.027047038078308105e-01 -3.047441542148590088e-01 -1.117832064628601074e+00 -6.507843136787414551e-01 -1.313888430595397949e+00 -2.021422088146209717e-01 -8.609391450881958008e-01 -2.858047246932983398e+00 -1.593585312366485596e-01 -1.276480853557586670e-01 -1.274223327636718750e+00 -1.219304725527763367e-01 5.041830986738204956e-02 1.489163041114807129e+00 -7.724685072898864746e-01 -4.897987842559814453e-01 -2.663168430328369141e+00 -8.534592986106872559e-01 1.700188368558883667e-01 5.408593416213989258e-01 -1.094950735569000244e-01 9.400693774223327637e-01 5.873547196388244629e-01 -9.894016981124877930e-01 -2.554108500480651855e-01 5.024008154869079590e-01 1.630125999450683594e+00 -3.942766487598419189e-01 -5.058177709579467773e-01 2.016948461532592773e-01 1.919265985488891602e+00 -4.303790628910064697e-01 -3.034174740314483643e-01 -5.404917001724243164e-01 6.597332954406738281e-01 2.295542806386947632e-01 -1.063050508499145508e+00 -6.280141472816467285e-01 -8.718873858451843262e-01 5.256806015968322754e-01 1.300458908081054688e-01 -3.004910051822662354e-01 1.696111202239990234e+00 2.004108190536499023e+00 -1.301305890083312988e+00 9.292286634445190430e-01 9.382404088973999023e-01 1.430958867073059082e+00 6.727302670478820801e-01 -8.612286448478698730e-01 -2.126348763704299927e-01 -3.768584728240966797e-01 2.023993730545043945e+00 -1.593677848577499390e-01 7.269939184188842773e-01 -2.940372943878173828e+00 6.152069568634033203e-01 -6.486750245094299316e-01 3.200200945138931274e-02 -8.092445731163024902e-01 -7.422292232513427734e-01 2.367815017700195312e+00 1.116839528083801270e+00 1.245851397514343262e+00 4.047354161739349365e-01 1.970526218414306641e+00 -7.806729078292846680e-01 9.221200346946716309e-01 -3.773695826530456543e-01 2.472306042909622192e-01 -2.224623203277587891e+00 -1.250272035598754883e+00 4.688653647899627686e-01 -2.706492543220520020e-01 4.777393043041229248e-01 -2.159978896379470825e-01 1.192508101463317871e+00 -5.498716235160827637e-02 -5.379894971847534180e-01 -1.402572989463806152e+00 3.860676288604736328e-01 6.355252861976623535e-02 1.108520984649658203e+00 6.938318014144897461e-01 1.911263227462768555e+00 3.454236388206481934e-01 3.175852596759796143e-01 -5.825344324111938477e-01 1.470586895942687988e+00 2.219838857650756836e+00 3.310623884201049805e+00 1.561262011528015137e+00 -4.992676973342895508e-01 -5.069053769111633301e-01 6.567826867103576660e-01 2.913857102394104004e-01 3.861370682716369629e-01 -1.006766915321350098e+00 -3.099742829799652100e-01 -6.659939885139465332e-01 -2.247776836156845093e-01 -6.175790331326425076e-04 1.231892704963684082e-01 5.271748900413513184e-01 -1.719153523445129395e+00 5.071408748626708984e-01 -1.031734943389892578e+00 -5.102699398994445801e-01 2.051123417913913727e-02 1.602517440915107727e-02 -5.609031319618225098e-01 7.902774810791015625e-01 -4.489774107933044434e-01 3.166673704981803894e-02 -1.926435232162475586e-01 3.171774744987487793e-01 1.126180887222290039e+00 5.441128015518188477e-01 -5.878570675849914551e-02 -1.187141656875610352e+00 3.771958053112030029e-01 5.173420310020446777e-01 1.415908694267272949e+00 3.137378692626953125e-01 -9.865288138389587402e-01 -6.457274407148361206e-02 8.882530331611633301e-01 1.454045295715332031e+00 -7.044869661331176758e-01 -3.450693190097808838e-01 -1.493188887834548950e-01 -1.737501263618469238e+00 -1.552856445312500000e+00 1.786500215530395508e-01 6.936647295951843262e-01 1.134545683860778809e+00 1.554622769355773926e+00 -4.613038003444671631e-01 3.472522199153900146e-01 2.849013090133666992e+00 3.399970531463623047e-01 -2.419531643390655518e-01 2.242876291275024414e-01 3.853754997253417969e-01 6.816005706787109375e-01 1.643737405538558960e-01 -1.809527128934860229e-01 3.002015352249145508e-01 1.743357330560684204e-01 6.535220146179199219e-01 3.066421151161193848e-01 -7.345390915870666504e-01 -6.046499609947204590e-01 7.238766551017761230e-01 -1.133090972900390625e+00 -3.393455445766448975e-01 -4.989997670054435730e-02 -3.515798747539520264e-01 -6.436160802841186523e-01 -3.461795449256896973e-01 -5.707232654094696045e-02 7.348886728286743164e-01 -1.294107317924499512e+00 -8.313221335411071777e-01 -2.707202434539794922e-01 5.963103771209716797e-01 2.868117392063140869e-02 1.690144658088684082e+00 -4.343051314353942871e-01 -3.331790268421173096e-01 -2.378383576869964600e-01 3.857303261756896973e-01 -1.111922025680541992e+00 1.087781429290771484e+00 -6.656123995780944824e-01 -1.052050232887268066e+00 1.224858239293098450e-01 -3.418312668800354004e-01 1.114785194396972656e+00 -5.134920477867126465e-01 4.169234335422515869e-01 -5.060908794403076172e-01 6.634886562824249268e-02 1.604563891887664795e-01 -1.343737244606018066e+00 1.798075437545776367e-02 1.900436162948608398e+00 3.887228727340698242e+00 -6.645160913467407227e-01 -1.788482666015625000e+00 -8.689650893211364746e-01 1.478093504905700684e+00 5.855714082717895508e-01 1.600852847099304199e+00 -4.796295762062072754e-01 -7.646672129631042480e-01 8.395161628723144531e-01 -5.373004674911499023e-01 -1.686602711677551270e+00 2.824655175209045410e-01 4.306057989597320557e-01 6.393444538116455078e-01 -3.258194923400878906e-01 -1.368937790393829346e-01 3.420184552669525146e-02 -3.287474811077117920e-01 2.803829312324523926e-01 -1.042033195495605469e+00 -6.596248149871826172e-01 6.421691179275512695e-01 -7.479751855134963989e-02 -4.974190592765808105e-01 9.071304798126220703e-01 -4.318764805793762207e-01 2.900111973285675049e-01 -3.187165558338165283e-01 -9.396334290504455566e-01 1.020440161228179932e-01 -3.707865476608276367e-01 -3.614400625228881836e-01 -5.706723332405090332e-01 1.012398719787597656e+00 9.256049990653991699e-01 -2.364345490932464600e-01 6.466283798217773438e-01 4.041003286838531494e-01 -3.286384418606758118e-02 -5.618683099746704102e-01 1.201795414090156555e-01 -1.565968632698059082e+00 4.412795305252075195e-01 -7.639417052268981934e-02 1.340352147817611694e-01 2.419459521770477295e-01 3.583758175373077393e-01 7.351875305175781250e-01 1.654772877693176270e+00 -5.007578730583190918e-01 -2.849646508693695068e-01 4.104766994714736938e-02 1.784700602293014526e-01 5.565713644027709961e-01 1.218394469469785690e-02 -4.476378560066223145e-01 3.100632131099700928e-01 -9.753789007663726807e-02 -8.587511181831359863e-01 -1.168941378593444824e+00 -3.163310885429382324e-01 5.051354169845581055e-01 -6.028285622596740723e-01 1.450000524520874023e+00 -9.480419158935546875e-01 -7.117544412612915039e-01 4.455192685127258301e-01 3.341735005378723145e-01 3.944154977798461914e-01 -2.550621926784515381e-01 1.519581794738769531e+00 9.547175467014312744e-02 -8.067027330398559570e-01 3.120430111885070801e-01 8.623445034027099609e-01 2.990579009056091309e-01 -4.242485463619232178e-01 1.667226850986480713e-01 1.088947057723999023e+00 1.585506945848464966e-01 -8.530088663101196289e-01 -2.137173116207122803e-01 1.128477901220321655e-01 1.690953075885772705e-01 -9.910822510719299316e-01 5.730069279670715332e-01 1.092347145080566406e+00 7.563929259777069092e-02 7.598382234573364258e-02 -3.279596567153930664e-02 -6.962805241346359253e-02 -5.796552821993827820e-02 4.297244250774383545e-01 -3.357593715190887451e-01 -1.823328882455825806e-01 -1.846926510334014893e-01 -1.991014480590820312e+00 2.008733987808227539e+00 1.084348917007446289e+00 -3.438464999198913574e-01 1.540574282407760620e-01 1.180702075362205505e-02 3.225156068801879883e-01 -9.038683176040649414e-01 3.792979121208190918e-01 6.568366885185241699e-01 -1.197897642850875854e-01 2.008031820878386497e-03 -2.296191006898880005e-01 -3.283340036869049072e-01 1.376685500144958496e+00 2.900420725345611572e-01 1.975944451987743378e-02 -8.290430903434753418e-01 -4.374141097068786621e-01 5.289957523345947266e-01 6.082526445388793945e-01 4.515392482280731201e-01 3.037054240703582764e-01 -3.815784752368927002e-01 -6.391227841377258301e-01 5.430042147636413574e-01 -2.670671939849853516e-01 -8.994759321212768555e-01 7.716107964515686035e-01 8.761503100395202637e-01 -5.065007209777832031e-01 -2.188538610935211182e-01 2.588828504085540771e-01 3.018218278884887695e-01 -1.521459102630615234e+00 -2.330242469906806946e-02 1.194323301315307617e+00 -6.206135153770446777e-01 -1.454288214445114136e-01 5.742302630096673965e-03 1.674153357744216919e-01 3.856943249702453613e-01 5.134118199348449707e-01 -7.185575962066650391e-01 1.569191217422485352e+00 -4.021365046501159668e-01 -1.180314898490905762e+00 -3.982844948768615723e-01 -1.424875140190124512e+00 2.350075840950012207e-01 -3.999407887458801270e-01 3.788993954658508301e-01 -1.953313112258911133e+00 -1.532212018966674805e+00 -4.384713470935821533e-01 1.097882747650146484e+00 -3.952289819717407227e-01 6.153411269187927246e-01 -1.054729342460632324e+00 1.263447999954223633e+00 -9.487998485565185547e-01 -4.064065814018249512e-01 1.611945509910583496e+00 -4.295213520526885986e-01 8.681515455245971680e-01 3.971480578184127808e-02 -3.415505290031433105e-01 -6.706044077873229980e-01 -7.177235484123229980e-01 -6.995730996131896973e-01 1.073296889662742615e-01 7.154383063316345215e-01 7.954294681549072266e-01 3.476934134960174561e-01 -1.362507343292236328e+00 1.603535413742065430e-01 4.438223242759704590e-01 2.497158385813236237e-02 -1.897340714931488037e-01 -2.467693760991096497e-02 2.276557683944702148e-02 9.020166397094726562e-01 -4.312779009342193604e-01 -9.373585581779479980e-01 -2.310897558927536011e-01 1.402250528335571289e+00 2.652406990528106689e-01 1.191283345222473145e+00 1.094390153884887695e-01 -2.751247406005859375e+00 4.309365153312683105e-01 -1.327369213104248047e+00 -6.590591669082641602e-01 -1.336352586746215820e+00 5.439148545265197754e-01 -9.331068992614746094e-01 2.772266604006290436e-02 5.656643509864807129e-01 -1.208067893981933594e+00 -2.917189300060272217e-01 2.731575965881347656e-01 3.824413418769836426e-01 -9.340406954288482666e-02 2.408028692007064819e-01 8.204828500747680664e-01 9.450656175613403320e-02 8.964306116104125977e-02 -1.199063420295715332e+00 -6.687610149383544922e-01 -1.312052130699157715e+00 4.855863153934478760e-01 1.875290393829345703e+00 -1.728177905082702637e+00 -1.848156929016113281e+00 -1.591646671295166016e-01 -2.571098506450653076e-01 -2.018604129552841187e-01 1.041703701019287109e+00 2.103440463542938232e-01 8.962352275848388672e-01 6.078911572694778442e-02 2.105347961187362671e-01 9.163664579391479492e-01 7.705812454223632812e-01 1.369158774614334106e-01 5.801416635513305664e-01 -2.355963736772537231e-01 1.168862700462341309e+00 3.206767737865447998e-01 2.074289023876190186e-01 -8.014870285987854004e-01 4.753481447696685791e-01 1.477381736040115356e-01 2.945281267166137695e-01 5.074977874755859375e-01 -5.825981497764587402e-01 1.108449026942253113e-01 -6.663898825645446777e-01 1.571669280529022217e-01 -1.132404923439025879e+00 1.453809738159179688e-01 4.909491539001464844e-01 1.293784528970718384e-01 -1.897834390401840210e-01 -9.691604971885681152e-01 9.977937676012516022e-03 -6.190980672836303711e-01 2.895843982696533203e-01 -9.966265410184860229e-02 1.224457144737243652e+00 1.720058023929595947e-01 -4.765462875366210938e-01 5.588601902127265930e-02 1.867700934410095215e+00 -4.384420216083526611e-01 2.760789096355438232e-01 -1.039569154381752014e-01 2.924907803535461426e-01 5.592473745346069336e-01 -6.718961894512176514e-02 6.087452769279479980e-01 4.416939616203308105e-01 7.275780439376831055e-01 -1.311191201210021973e+00 3.810354769229888916e-01 5.582909584045410156e-01 -4.150789696723222733e-03 -1.005661845207214355e+00 -7.682457217015326023e-04 7.203465104103088379e-01 -5.313267111778259277e-01 -2.369346380233764648e+00 -1.970994114875793457e+00 7.988572716712951660e-01 4.099063873291015625e-01 -3.337431252002716064e-01 -7.863627672195434570e-01 -4.388873279094696045e-02 5.332591533660888672e-01 8.123667836189270020e-01 -6.356436759233474731e-02 4.931304752826690674e-01 5.436155796051025391e-01 8.443966507911682129e-02 6.011497229337692261e-02 2.344506978988647461e-01 5.830655694007873535e-01 -4.613474607467651367e-01 -1.011369705200195312e+00 -1.050752878189086914e+00 -1.489843845367431641e+00 -4.367034733295440674e-01 -9.394148588180541992e-01 -9.045907855033874512e-01 5.548471808433532715e-01 -6.647490262985229492e-01 -2.036771774291992188e-01 -5.669503808021545410e-01 -9.240056872367858887e-01 -6.192250847816467285e-01 -2.260550111532211304e-01 9.002158045768737793e-01 4.374264180660247803e-01 -8.235033750534057617e-01 2.086805254220962524e-01 2.456900179386138916e-01 1.333355188369750977e+00