-6.241065234375000000e+04
-6.240746875000000000e+04
-6.239935546875000000e+04
-6.239694921875000000e+04
-6.240146484375000000e+04
-6.240025390625000000e+04
-6.239914062500000000e+04
-6.239543359375000000e+04
-6.239624609375000000e+04
-6.239887500000000000e+04
-6.239862500000000000e+04
-6.239498437500000000e+04
-6.239483203125000000e+04
-6.239333984375000000e+04
-6.239452734375000000e+04
-6.239690625000000000e+04
-6.239732031250000000e+04
-6.239679296875000000e+04
-6.239457421875000000e+04
-6.244278906250000000e+04
-6.241418750000000000e+04
-6.239955078125000000e+04
-6.239724609375000000e+04
-6.240234375000000000e+04
-6.239973828125000000e+04
-6.239739062500000000e+04
-6.239546093750000000e+04
-6.239730078125000000e+04
-6.239525781250000000e+04
-6.239392578125000000e+04
-6.239688671875000000e+04
-6.239635546875000000e+04
-6.239609375000000000e+04
-6.239595312500000000e+04
-6.239687109375000000e+04
-6.239660546875000000e+04
-6.239653125000000000e+04
-6.239820703125000000e+04
-6.240076953125000000e+04
-6.239295312500000000e+04
-6.238325000000000000e+04
-6.238212500000000000e+04
-6.238201953125000000e+04
-6.237947265625000000e+04
-6.237867187500000000e+04
-6.237686718750000000e+04
-6.237805468750000000e+04
-6.237897656250000000e+04
-6.237932812500000000e+04
-6.237681250000000000e+04
-6.237717968750000000e+04
-6.237923046875000000e+04
-6.238085546875000000e+04
-6.237749609375000000e+04
-6.237468359375000000e+04
-6.237517578125000000e+04
-6.237312500000000000e+04
-6.244278906250000000e+04
-6.240498046875000000e+04
-6.239861718750000000e+04
-6.238200390625000000e+04
-6.238017578125000000e+04
-6.238345312500000000e+04
-6.238390234375000000e+04
-6.238216015625000000e+04
-6.237989843750000000e+04
-6.237676171875000000e+04
-6.237818750000000000e+04
-6.237794140625000000e+04
-6.237457031250000000e+04
-6.237762109375000000e+04
-6.238246484375000000e+04
-6.237653125000000000e+04
-6.237556250000000000e+04
-6.238120312500000000e+04
-6.237992187500000000e+04
-6.237610937500000000e+04
-6.237758203125000000e+04
-6.237370312500000000e+04
-6.237609765625000000e+04
-6.237719140625000000e+04
-6.237841796875000000e+04
-6.244278906250000000e+04
-6.240383984375000000e+04
-6.239964843750000000e+04
-6.238401953125000000e+04
-6.237656250000000000e+04
-6.236782812500000000e+04
-6.236149218750000000e+04
-6.236131250000000000e+04
-6.236583593750000000e+04
-6.236808984375000000e+04
-6.236194531250000000e+04
-6.235874218750000000e+04
-6.235562890625000000e+04
-6.235494531250000000e+04
-6.236148828125000000e+04
-6.236203515625000000e+04
-6.235451171875000000e+04
-6.235893359375000000e+04
-6.235912109375000000e+04
-6.236103125000000000e+04
-6.236183203125000000e+04
-6.236087500000000000e+04
-6.235453125000000000e+04
-6.235362500000000000e+04
-6.236047265625000000e+04
-6.235289453125000000e+04
-6.235360156250000000e+04
-6.235413281250000000e+04
-6.235353125000000000e+04
-6.236241015625000000e+04
-6.236297656250000000e+04
-6.240536328125000000e+04
-6.239684765625000000e+04
-6.239133203125000000e+04
-6.237194140625000000e+04
-6.236504296875000000e+04
-6.236145312500000000e+04
-6.236352343750000000e+04
-6.236546093750000000e+04
-6.236232031250000000e+04
-6.235712109375000000e+04
-6.236164453125000000e+04
-6.236662109375000000e+04
-6.236737890625000000e+04
-6.236080078125000000e+04
-6.236148828125000000e+04
-6.236223828125000000e+04
-6.236384375000000000e+04
-6.235971875000000000e+04
-6.235883593750000000e+04
-6.236248437500000000e+04
-6.236237890625000000e+04
-6.236147265625000000e+04
-6.236370703125000000e+04
-6.236567187500000000e+04
-6.236274218750000000e+04
-6.236357812500000000e+04
-6.235714062500000000e+04
-6.236117968750000000e+04
-6.236403906250000000e+04
-6.236157421875000000e+04
-6.235709375000000000e+04
-6.235810937500000000e+04
-6.235498828125000000e+04
-6.235771484375000000e+04
-6.244216406250000000e+04
-6.241218750000000000e+04
-6.239947656250000000e+04
-6.239697656250000000e+04
-6.239894140625000000e+04
-6.239509765625000000e+04
-6.239559765625000000e+04
-6.239753515625000000e+04
-6.239633203125000000e+04
-6.239569921875000000e+04
-6.239580468750000000e+04
-6.239586718750000000e+04
-6.239240234375000000e+04
-6.239680859375000000e+04
-6.239592578125000000e+04
-6.239791015625000000e+04
-6.244216406250000000e+04
-6.241220312500000000e+04
-6.240390625000000000e+04
-6.239789453125000000e+04
-6.239716796875000000e+04
-6.239610546875000000e+04
-6.239492187500000000e+04
-6.239409765625000000e+04
-6.239489843750000000e+04
-6.239537109375000000e+04
-6.239579296875000000e+04
-6.239355468750000000e+04
-6.239721093750000000e+04
-6.239807031250000000e+04
-6.239880078125000000e+04
-6.239165625000000000e+04
-6.239292187500000000e+04
-6.244216406250000000e+04
-6.239848437500000000e+04
-6.238566015625000000e+04
-6.238187890625000000e+04
-6.238273828125000000e+04
-6.238369531250000000e+04
-6.237628906250000000e+04
-6.237679687500000000e+04
-6.237781250000000000e+04
-6.237906640625000000e+04
-6.238046875000000000e+04
-6.237719921875000000e+04
-6.237671093750000000e+04
-6.237860937500000000e+04
-6.237705468750000000e+04
-6.237710937500000000e+04
-6.237963671875000000e+04
-6.244216406250000000e+04
-6.239767968750000000e+04
-6.239161328125000000e+04
-6.238724609375000000e+04
-6.238559765625000000e+04
-6.238326953125000000e+04
-6.238244140625000000e+04
-6.238242578125000000e+04
-6.238155468750000000e+04
-6.238167968750000000e+04
-6.237828515625000000e+04
-6.237823046875000000e+04
-6.237875000000000000e+04
-6.237769921875000000e+04
-6.237914843750000000e+04
-6.237913281250000000e+04
-6.238263671875000000e+04
-6.237774609375000000e+04
-6.238040625000000000e+04
-6.238108203125000000e+04
-6.244216406250000000e+04
-6.237308593750000000e+04
-6.236875000000000000e+04
-6.236356640625000000e+04
-6.236143750000000000e+04
-6.236240625000000000e+04
-6.235954296875000000e+04
-6.235998828125000000e+04
-6.235914843750000000e+04
-6.235841015625000000e+04
-6.236163671875000000e+04
-6.236061718750000000e+04
-6.236600000000000000e+04
-6.236538671875000000e+04
-6.236387890625000000e+04
-6.236368359375000000e+04
-6.235821093750000000e+04
-6.236103906250000000e+04
-6.235900781250000000e+04
-6.236171484375000000e+04
-6.236038281250000000e+04
-6.236709375000000000e+04
-6.236196093750000000e+04
-6.236444531250000000e+04
-6.236217968750000000e+04
-6.236126953125000000e+04
-6.236157031250000000e+04
-6.235976953125000000e+04
-6.236295703125000000e+04
-6.244216406250000000e+04
-6.240047265625000000e+04
-6.239177734375000000e+04
-6.237004687500000000e+04
-6.236625000000000000e+04
-6.237031640625000000e+04
-6.237147656250000000e+04
-6.236762109375000000e+04
-6.236529296875000000e+04
-6.237023828125000000e+04
-6.237163281250000000e+04
-6.236470312500000000e+04
-6.236945703125000000e+04
-6.237049609375000000e+04
-6.236885546875000000e+04
-6.236291796875000000e+04
-6.236413671875000000e+04
-6.235962890625000000e+04
-6.236546875000000000e+04
-6.236601953125000000e+04
-6.236651171875000000e+04
-6.235952734375000000e+04
-6.235457421875000000e+04
-6.235812500000000000e+04
-6.236519531250000000e+04
-6.236298046875000000e+04
-6.236496484375000000e+04
-6.236165234375000000e+04
-6.236319531250000000e+04
-6.236565625000000000e+04
-6.241617968750000000e+04
-6.241090234375000000e+04
-6.239837890625000000e+04
-6.239775000000000000e+04
-6.239762500000000000e+04
-6.239971093750000000e+04
-6.239466796875000000e+04
-6.239683984375000000e+04
-6.238998828125000000e+04
-6.239026171875000000e+04
-6.239050390625000000e+04
-6.238858593750000000e+04
-6.239172656250000000e+04
-6.239395312500000000e+04
-6.239341406250000000e+04
-6.239259375000000000e+04
-6.239136328125000000e+04
-6.239355078125000000e+04
-6.239728906250000000e+04
-6.239658203125000000e+04
-6.244164453125000000e+04
-6.240319921875000000e+04
-6.240039843750000000e+04
-6.239750781250000000e+04
-6.240183593750000000e+04
-6.239692187500000000e+04
-6.239776171875000000e+04
-6.239788671875000000e+04
-6.239776171875000000e+04
-6.239623437500000000e+04
-6.240012500000000000e+04
-6.239846093750000000e+04
-6.239739843750000000e+04
-6.239496875000000000e+04
-6.239553515625000000e+04
-6.239107421875000000e+04
-6.239394140625000000e+04
-6.239388671875000000e+04
-6.239621875000000000e+04
-6.239719531250000000e+04
-6.239574609375000000e+04
-6.240527734375000000e+04
-6.239775390625000000e+04
-6.239265625000000000e+04
-6.238823046875000000e+04
-6.238295703125000000e+04
-6.237999609375000000e+04
-6.238128125000000000e+04
-6.238087500000000000e+04
-6.238318359375000000e+04
-6.238836718750000000e+04
-6.238113281250000000e+04
-6.238245703125000000e+04
-6.238205859375000000e+04
-6.237782421875000000e+04
-6.237549218750000000e+04
-6.237950000000000000e+04
-6.237901953125000000e+04
-6.237699218750000000e+04
-6.238293750000000000e+04
-6.238262500000000000e+04
-6.237824609375000000e+04
-6.238026562500000000e+04
-6.237523828125000000e+04
-6.244164453125000000e+04
-6.238574218750000000e+04
-6.237963671875000000e+04
-6.238137500000000000e+04
-6.237934765625000000e+04
-6.238025000000000000e+04
-6.238307421875000000e+04
-6.238166015625000000e+04
-6.238258203125000000e+04
-6.237698437500000000e+04
-6.237780859375000000e+04
-6.237835156250000000e+04
-6.237958203125000000e+04
-6.238407812500000000e+04
-6.237612109375000000e+04
-6.237782812500000000e+04
-6.237467187500000000e+04
-6.236555859375000000e+04
-6.236426171875000000e+04
-6.236410937500000000e+04
-6.235781640625000000e+04
-6.236120703125000000e+04
-6.235707421875000000e+04
-6.235856250000000000e+04
-6.236035937500000000e+04
-6.236436328125000000e+04
-6.236224218750000000e+04
-6.236309375000000000e+04
-6.235654296875000000e+04
-6.235863281250000000e+04
-6.235869140625000000e+04
-6.236203125000000000e+04
-6.235775781250000000e+04
-6.235132812500000000e+04
-6.235273828125000000e+04
-6.235611328125000000e+04
-6.235812890625000000e+04
-6.235721093750000000e+04
-6.244164453125000000e+04
-6.240002734375000000e+04
-6.237548828125000000e+04
-6.237178125000000000e+04
-6.237065625000000000e+04
-6.236772656250000000e+04
-6.236856250000000000e+04
-6.236962890625000000e+04
-6.236783984375000000e+04
-6.236454296875000000e+04
-6.236305078125000000e+04
-6.236492968750000000e+04
-6.236894531250000000e+04
-6.235883203125000000e+04
-6.236223437500000000e+04
-6.236321875000000000e+04
-6.236117187500000000e+04
-6.236551171875000000e+04
-6.236765625000000000e+04
-6.236791406250000000e+04
-6.236763671875000000e+04
-6.236116796875000000e+04
-6.236397265625000000e+04
-6.236476953125000000e+04
-6.236678906250000000e+04
-6.236432812500000000e+04
-6.235894531250000000e+04
-6.236026562500000000e+04
-6.235846875000000000e+04
-6.235877343750000000e+04
-6.244222656250000000e+04
-6.241224218750000000e+04
-6.239686718750000000e+04
-6.239535156250000000e+04
-6.239607421875000000e+04
-6.239921093750000000e+04
-6.239639843750000000e+04
-6.239619531250000000e+04
-6.239519921875000000e+04
-6.239423828125000000e+04
-6.239441015625000000e+04
-6.239559375000000000e+04
-6.239527343750000000e+04
-6.240024218750000000e+04
-6.239611718750000000e+04
-6.239342968750000000e+04
-6.239532031250000000e+04
-6.239640234375000000e+04
-6.239339453125000000e+04
-6.239441015625000000e+04
-6.239411718750000000e+04
-6.239569921875000000e+04
-6.239956250000000000e+04
-6.241221093750000000e+04
-6.240621093750000000e+04
-6.240391015625000000e+04
-6.239821093750000000e+04
-6.240105859375000000e+04
-6.239883984375000000e+04
-6.239647656250000000e+04
-6.239530468750000000e+04
-6.239538671875000000e+04
-6.240046875000000000e+04
-6.239572265625000000e+04
-6.239548046875000000e+04
-6.239510156250000000e+04
-6.239652343750000000e+04
-6.239520312500000000e+04
-6.239659375000000000e+04
-6.239776171875000000e+04
-6.239263671875000000e+04
-6.239578515625000000e+04
-6.239548437500000000e+04
-6.239692578125000000e+04
-6.239544921875000000e+04
-6.239275781250000000e+04
-6.239596093750000000e+04
-6.244222656250000000e+04
-6.239830859375000000e+04
-6.238596093750000000e+04
-6.238229687500000000e+04
-6.238283984375000000e+04
-6.238368750000000000e+04
-6.238049218750000000e+04
-6.237917578125000000e+04
-6.238049218750000000e+04
-6.237927343750000000e+04
-6.238017968750000000e+04
-6.237831640625000000e+04
-6.238040625000000000e+04
-6.238162500000000000e+04
-6.238410156250000000e+04
-6.238473437500000000e+04
-6.238114062500000000e+04
-6.237979296875000000e+04
-6.238379687500000000e+04
-6.237552343750000000e+04
-6.238289453125000000e+04
-6.237801953125000000e+04
-6.237936718750000000e+04
-6.238330859375000000e+04
-6.238481250000000000e+04
-6.241219921875000000e+04
-6.239856250000000000e+04
-6.238942578125000000e+04
-6.238232031250000000e+04
-6.238309375000000000e+04
-6.238196484375000000e+04
-6.238250781250000000e+04
-6.238236718750000000e+04
-6.238019140625000000e+04
-6.237800000000000000e+04
-6.237632421875000000e+04
-6.237970312500000000e+04
-6.238483984375000000e+04
-6.238468359375000000e+04
-6.238461718750000000e+04
-6.238504296875000000e+04
-6.237946875000000000e+04
-6.238070703125000000e+04
-6.238296875000000000e+04
-6.238218750000000000e+04
-6.237840234375000000e+04
-6.237961328125000000e+04
-6.238021093750000000e+04
-6.237710156250000000e+04
-6.238526171875000000e+04
-6.240539843750000000e+04
-6.239664843750000000e+04
-6.238324609375000000e+04
-6.238013281250000000e+04
-6.237196484375000000e+04
-6.236434765625000000e+04
-6.236396484375000000e+04
-6.236438671875000000e+04
-6.236269531250000000e+04
-6.236941796875000000e+04
-6.236999609375000000e+04
-6.236672265625000000e+04
-6.237025781250000000e+04
-6.236440625000000000e+04
-6.236046484375000000e+04
-6.236687109375000000e+04
-6.236891015625000000e+04
-6.236786328125000000e+04
-6.236476953125000000e+04
-6.236422265625000000e+04
-6.236479296875000000e+04
-6.236409375000000000e+04
-6.236424609375000000e+04
-6.236625000000000000e+04
-6.236327734375000000e+04
-6.236763281250000000e+04
-6.236762109375000000e+04
-6.236631640625000000e+04
-6.239725390625000000e+04
-6.239201953125000000e+04
-6.238455468750000000e+04
-6.237639062500000000e+04
-6.236848828125000000e+04
-6.236953515625000000e+04
-6.236792187500000000e+04
-6.236366015625000000e+04
-6.236366406250000000e+04
-6.236706640625000000e+04
-6.236650390625000000e+04
-6.236406640625000000e+04
-6.236458984375000000e+04
-6.236932031250000000e+04
-6.236372265625000000e+04
-6.236068359375000000e+04
-6.236050390625000000e+04
-6.236086328125000000e+04
-6.235815625000000000e+04
-6.235937500000000000e+04
-6.236193750000000000e+04
-6.236430078125000000e+04
-6.236053906250000000e+04
-6.236250781250000000e+04
-6.236340625000000000e+04
-6.235949218750000000e+04
-6.237087109375000000e+04
-6.236682421875000000e+04
-6.236550000000000000e+04
-6.236071875000000000e+04
-6.235926953125000000e+04
-6.236002734375000000e+04
-6.240870312500000000e+04
-6.240216796875000000e+04
-6.239812890625000000e+04
-6.239866796875000000e+04
-6.239726171875000000e+04
-6.239905078125000000e+04
-6.239562109375000000e+04
-6.239808984375000000e+04
-6.239591015625000000e+04
-6.239617578125000000e+04
-6.241258203125000000e+04
-6.239836718750000000e+04
-6.239930859375000000e+04
-6.239636718750000000e+04
-6.239653125000000000e+04
-6.239665234375000000e+04
-6.239276562500000000e+04
-6.239144921875000000e+04
-6.239839453125000000e+04
-6.239582031250000000e+04
-6.239564062500000000e+04
-6.239807421875000000e+04
-6.239669531250000000e+04
-6.239816406250000000e+04
-6.239680859375000000e+04
-6.239517968750000000e+04
-6.241226953125000000e+04
-6.239785546875000000e+04
-6.237935156250000000e+04
-6.237921875000000000e+04
-6.237988281250000000e+04
-6.238222265625000000e+04
-6.238048828125000000e+04
-6.237903515625000000e+04
-6.238183984375000000e+04
-6.237400000000000000e+04
-6.237344140625000000e+04
-6.237746093750000000e+04
-6.237416796875000000e+04
-6.237497656250000000e+04
-6.237306640625000000e+04
-6.237740625000000000e+04
-6.237316796875000000e+04
-6.237239843750000000e+04
-6.237872656250000000e+04
-6.237586718750000000e+04
-6.237569921875000000e+04
-6.237936328125000000e+04
-6.244375000000000000e+04
-6.241187500000000000e+04
-6.239187500000000000e+04
-6.238044140625000000e+04
-6.238012890625000000e+04
-6.238070703125000000e+04
-6.237972656250000000e+04
-6.237877734375000000e+04
-6.237838671875000000e+04
-6.237933984375000000e+04
-6.237726953125000000e+04
-6.238101171875000000e+04
-6.237944531250000000e+04
-6.237702734375000000e+04
-6.237581640625000000e+04
-6.237921484375000000e+04
-6.238137500000000000e+04
-6.238083593750000000e+04
-6.237874218750000000e+04
-6.237745312500000000e+04
-6.240362890625000000e+04
-6.238875390625000000e+04
-6.238112500000000000e+04
-6.237039453125000000e+04
-6.236441406250000000e+04
-6.236438281250000000e+04
-6.236528125000000000e+04
-6.236454296875000000e+04
-6.236700390625000000e+04
-6.236478906250000000e+04
-6.236837500000000000e+04
-6.236489062500000000e+04
-6.235983593750000000e+04
-6.236685937500000000e+04
-6.236257031250000000e+04
-6.236424218750000000e+04
-6.236538671875000000e+04
-6.235884765625000000e+04
-6.236042578125000000e+04
-6.236417968750000000e+04
-6.236392578125000000e+04
-6.236357421875000000e+04
-6.236305859375000000e+04
-6.236676562500000000e+04
-6.236723046875000000e+04
-6.236409375000000000e+04
-6.235953125000000000e+04
-6.236750000000000000e+04
-6.236291406250000000e+04
-6.244375000000000000e+04
-6.237423046875000000e+04
-6.236648828125000000e+04
-6.236479687500000000e+04
-6.237237890625000000e+04
-6.236830078125000000e+04
-6.236378515625000000e+04
-6.236329296875000000e+04
-6.236163281250000000e+04
-6.237005859375000000e+04
-6.236478906250000000e+04
-6.236278515625000000e+04
-6.235685937500000000e+04
-6.235718359375000000e+04
-6.235498828125000000e+04
-6.235895312500000000e+04
-6.235976953125000000e+04
-6.235674609375000000e+04
-6.236263671875000000e+04
-6.236000000000000000e+04
-6.236492578125000000e+04
-6.236246093750000000e+04
-6.236375000000000000e+04
-6.236187500000000000e+04
-6.236251562500000000e+04
-6.236106250000000000e+04
-6.235730468750000000e+04
-6.235774609375000000e+04
-6.241673828125000000e+04
-6.241280078125000000e+04
-6.240392578125000000e+04
-6.239835156250000000e+04
-6.239901562500000000e+04
-6.239960937500000000e+04
-6.239688281250000000e+04
-6.240243750000000000e+04
-6.239976953125000000e+04
-6.240087109375000000e+04
-6.240132421875000000e+04
-6.239596093750000000e+04
-6.239775390625000000e+04
-6.239562890625000000e+04
-6.239666015625000000e+04
-6.239694531250000000e+04
-6.239662109375000000e+04
-6.239481250000000000e+04
-6.239597265625000000e+04
-6.239696875000000000e+04
-6.239795312500000000e+04
-6.240487890625000000e+04
-6.239806250000000000e+04
-6.239839062500000000e+04
-6.239895312500000000e+04
-6.239575781250000000e+04
-6.239818750000000000e+04
-6.239900390625000000e+04
-6.240182421875000000e+04
-6.240039843750000000e+04
-6.239934375000000000e+04
-6.239757031250000000e+04
-6.239618359375000000e+04
-6.239851953125000000e+04
-6.239206250000000000e+04
-6.239610546875000000e+04
-6.239758984375000000e+04
-6.239587890625000000e+04
-6.239688281250000000e+04
-6.239871484375000000e+04
-6.239687500000000000e+04
-6.239653906250000000e+04
-6.244065234375000000e+04
-6.240435546875000000e+04
-6.239732031250000000e+04
-6.238593359375000000e+04
-6.237497656250000000e+04
-6.237973046875000000e+04
-6.238504687500000000e+04
-6.238025781250000000e+04
-6.238082812500000000e+04
-6.237944531250000000e+04
-6.238164062500000000e+04
-6.237775781250000000e+04
-6.237595312500000000e+04
-6.237746484375000000e+04
-6.237669921875000000e+04
-6.237814062500000000e+04
-6.237205078125000000e+04
-6.237464843750000000e+04
-6.237451562500000000e+04
-6.237703515625000000e+04
-6.238064453125000000e+04
-6.244065234375000000e+04
-6.240976562500000000e+04
-6.240514453125000000e+04
-6.238304296875000000e+04
-6.238244921875000000e+04
-6.238162890625000000e+04
-6.237783203125000000e+04
-6.238273828125000000e+04
-6.238323437500000000e+04
-6.237702343750000000e+04
-6.237836328125000000e+04
-6.237587890625000000e+04
-6.237637500000000000e+04
-6.237531250000000000e+04
-6.237405468750000000e+04
-6.237772265625000000e+04
-6.237896875000000000e+04
-6.240266796875000000e+04
-6.237306250000000000e+04
-6.235963671875000000e+04
-6.235910156250000000e+04
-6.235806640625000000e+04
-6.236101562500000000e+04
-6.236199609375000000e+04
-6.235978125000000000e+04
-6.235812109375000000e+04
-6.235970312500000000e+04
-6.236187109375000000e+04
-6.236125000000000000e+04
-6.236071093750000000e+04
-6.236249218750000000e+04
-6.236174609375000000e+04
-6.236112890625000000e+04
-6.236549218750000000e+04
-6.236530468750000000e+04
-6.236462500000000000e+04
-6.236483593750000000e+04
-6.236450781250000000e+04
-6.236548046875000000e+04
-6.236750000000000000e+04
-6.236374609375000000e+04
-6.236582812500000000e+04
-6.236444140625000000e+04
-6.236782421875000000e+04
-6.236614453125000000e+04
-6.236811718750000000e+04
-6.236629687500000000e+04
-6.244065234375000000e+04
-6.239775781250000000e+04
-6.238772656250000000e+04
-6.237690234375000000e+04
-6.237252343750000000e+04
-6.236301953125000000e+04
-6.236309375000000000e+04
-6.236427734375000000e+04
-6.235975390625000000e+04
-6.236284375000000000e+04
-6.236173437500000000e+04
-6.236526171875000000e+04
-6.235758984375000000e+04
-6.236142578125000000e+04
-6.236119140625000000e+04
-6.236203515625000000e+04
-6.236231640625000000e+04
-6.235675390625000000e+04
-6.235963671875000000e+04
-6.236591406250000000e+04
-6.236115234375000000e+04
-6.236209375000000000e+04
-6.236671484375000000e+04
-6.236124609375000000e+04
-6.236135156250000000e+04
-6.236313671875000000e+04
-6.235693750000000000e+04
-6.235112109375000000e+04
-6.235605859375000000e+04
-6.239770312500000000e+04
-6.239822656250000000e+04
-6.239901953125000000e+04
-6.239908593750000000e+04
-6.239848437500000000e+04
-6.239902343750000000e+04
-6.240000000000000000e+04
-6.239853906250000000e+04
-6.240109375000000000e+04
-6.239846875000000000e+04
-6.239644140625000000e+04
-6.239671875000000000e+04
-6.239701562500000000e+04
-6.239627343750000000e+04
-6.239505468750000000e+04
-6.239690625000000000e+04
-6.239516406250000000e+04
-6.239041015625000000e+04
-6.239441796875000000e+04
-6.239320703125000000e+04
-6.244273046875000000e+04
-6.240602734375000000e+04
-6.239626953125000000e+04
-6.239498828125000000e+04
-6.239761328125000000e+04
-6.239755859375000000e+04
-6.239523828125000000e+04
-6.239633203125000000e+04
-6.239362890625000000e+04
-6.239141406250000000e+04
-6.239470703125000000e+04
-6.239485546875000000e+04
-6.239268359375000000e+04
-6.239742578125000000e+04
-6.239141406250000000e+04
-6.239394531250000000e+04
-6.239684765625000000e+04
-6.239433984375000000e+04
-6.239341015625000000e+04
-6.239489843750000000e+04
-6.239852734375000000e+04
-6.244273046875000000e+04
-6.240971484375000000e+04
-6.238978515625000000e+04
-6.237944531250000000e+04
-6.238137890625000000e+04
-6.238138281250000000e+04
-6.237613281250000000e+04
-6.237857031250000000e+04
-6.238335156250000000e+04
-6.238130859375000000e+04
-6.238144921875000000e+04
-6.238342968750000000e+04
-6.237816015625000000e+04
-6.237703906250000000e+04
-6.237891406250000000e+04
-6.238153125000000000e+04
-6.237870312500000000e+04
-6.237634765625000000e+04
-6.238382421875000000e+04
-6.238032031250000000e+04
-6.237773828125000000e+04
-6.237942968750000000e+04
-6.244273046875000000e+04
-6.240569531250000000e+04
-6.239446875000000000e+04
-6.239015234375000000e+04
-6.237700781250000000e+04
-6.238443750000000000e+04
-6.238271093750000000e+04
-6.238121875000000000e+04
-6.238038281250000000e+04
-6.237893750000000000e+04
-6.238292187500000000e+04
-6.237839062500000000e+04
-6.238340625000000000e+04
-6.237950000000000000e+04
-6.238379296875000000e+04
-6.238395703125000000e+04
-6.238562109375000000e+04
-6.236487109375000000e+04
-6.235969531250000000e+04
-6.236158203125000000e+04
-6.235979687500000000e+04
-6.235850000000000000e+04
-6.236341406250000000e+04
-6.236543750000000000e+04
-6.236164062500000000e+04
-6.236020703125000000e+04
-6.235654296875000000e+04
-6.236241406250000000e+04
-6.236392187500000000e+04
-6.236448046875000000e+04
-6.236401171875000000e+04
-6.236533203125000000e+04
-6.235876171875000000e+04
-6.236289062500000000e+04
-6.236003125000000000e+04
-6.235760546875000000e+04
-6.235718359375000000e+04
-6.239635937500000000e+04
-6.238129687500000000e+04
-6.237226953125000000e+04
-6.236770703125000000e+04
-6.237369140625000000e+04
-6.237185156250000000e+04
-6.236763281250000000e+04
-6.235973437500000000e+04
-6.236493359375000000e+04
-6.236575781250000000e+04
-6.236341015625000000e+04
-6.236343750000000000e+04
-6.236639453125000000e+04
-6.236287500000000000e+04
-6.236193359375000000e+04
-6.236598046875000000e+04
-6.236357421875000000e+04
-6.236260546875000000e+04
-6.236696484375000000e+04
-6.236699609375000000e+04
-6.236453906250000000e+04
-6.236002343750000000e+04
-6.236265625000000000e+04
-6.235911718750000000e+04
-6.244137500000000000e+04
-6.241757421875000000e+04
-6.240335156250000000e+04
-6.239777734375000000e+04
-6.239980859375000000e+04
-6.239840234375000000e+04
-6.239486328125000000e+04
-6.239713671875000000e+04
-6.239846484375000000e+04
-6.239648828125000000e+04
-6.239676562500000000e+04
-6.239598828125000000e+04
-6.239450781250000000e+04
-6.239719140625000000e+04
-6.239701562500000000e+04
-6.239664843750000000e+04
-6.239472265625000000e+04
-6.239598046875000000e+04
-6.239585937500000000e+04
-6.239405078125000000e+04
-6.239409765625000000e+04
-6.244137500000000000e+04
-6.240800781250000000e+04
-6.239906250000000000e+04
-6.239843359375000000e+04
-6.239905078125000000e+04
-6.240034765625000000e+04
-6.239542968750000000e+04
-6.239647656250000000e+04
-6.239707421875000000e+04
-6.239952343750000000e+04
-6.239693359375000000e+04
-6.239412890625000000e+04
-6.239514062500000000e+04
-6.239630078125000000e+04
-6.239800000000000000e+04
-6.239741015625000000e+04
-6.239691796875000000e+04
-6.239715234375000000e+04
-6.239456250000000000e+04
-6.239096875000000000e+04
-6.239620703125000000e+04
-6.239676171875000000e+04
-6.239584765625000000e+04
-6.244137500000000000e+04
-6.240301562500000000e+04
-6.239941015625000000e+04
-6.238978515625000000e+04
-6.238269921875000000e+04
-6.237686328125000000e+04
-6.237991406250000000e+04
-6.238335546875000000e+04
-6.238332031250000000e+04
-6.238287890625000000e+04
-6.237934375000000000e+04
-6.237839062500000000e+04
-6.238451953125000000e+04
-6.238015625000000000e+04
-6.237558593750000000e+04
-6.237575390625000000e+04
-6.237094140625000000e+04
-6.237281250000000000e+04
-6.237312109375000000e+04
-6.237344140625000000e+04
-6.237987500000000000e+04
-6.237703125000000000e+04
-6.237780859375000000e+04
-6.237532812500000000e+04
-6.237598437500000000e+04
-6.244137500000000000e+04
-6.240300000000000000e+04
-6.239976562500000000e+04
-6.239851562500000000e+04
-6.238301953125000000e+04
-6.237889843750000000e+04
-6.237854687500000000e+04
-6.238017187500000000e+04
-6.237503515625000000e+04
-6.237622656250000000e+04
-6.237552734375000000e+04
-6.237311328125000000e+04
-6.237462500000000000e+04
-6.238007812500000000e+04
-6.238078125000000000e+04
-6.237662109375000000e+04
-6.237852734375000000e+04
-6.244137500000000000e+04
-6.240479296875000000e+04
-6.239190234375000000e+04
-6.238144140625000000e+04
-6.237407421875000000e+04
-6.236330468750000000e+04
-6.236915625000000000e+04
-6.236877734375000000e+04
-6.236597265625000000e+04
-6.236289453125000000e+04
-6.236664453125000000e+04
-6.236552734375000000e+04
-6.236428125000000000e+04
-6.236521875000000000e+04
-6.236692968750000000e+04
-6.236782031250000000e+04
-6.236628515625000000e+04
-6.236255859375000000e+04
-6.236493750000000000e+04
-6.235778125000000000e+04
-6.235905078125000000e+04
-6.236166406250000000e+04
-6.235999218750000000e+04
-6.235837500000000000e+04
-6.235748437500000000e+04
-6.236073046875000000e+04
-6.236130859375000000e+04
-6.236176171875000000e+04
-6.235717968750000000e+04
-6.235628515625000000e+04
-6.244137500000000000e+04
-6.238799609375000000e+04
-6.238337109375000000e+04
-6.236870703125000000e+04
-6.237053125000000000e+04
-6.236658593750000000e+04
-6.236457421875000000e+04
-6.236016406250000000e+04
-6.236468750000000000e+04
-6.236389843750000000e+04
-6.236362500000000000e+04
-6.236465625000000000e+04
-6.235979296875000000e+04
-6.236153515625000000e+04
-6.236329687500000000e+04
-6.236558593750000000e+04
-6.236765625000000000e+04
-6.236703125000000000e+04
-6.236358984375000000e+04
-6.236215234375000000e+04
-6.236613281250000000e+04
-6.236590234375000000e+04
-6.236004687500000000e+04
-6.235880468750000000e+04
-6.236313281250000000e+04
-6.236483203125000000e+04
-6.236355859375000000e+04
-6.236034765625000000e+04
-6.236368359375000000e+04
-6.241325000000000000e+04
-6.240741796875000000e+04
-6.240375390625000000e+04
-6.239525390625000000e+04
-6.239465234375000000e+04
-6.239296093750000000e+04
-6.239714843750000000e+04
-6.239692187500000000e+04
-6.239398046875000000e+04
-6.239476562500000000e+04
-6.239648046875000000e+04
-6.239482421875000000e+04
-6.239742968750000000e+04
-6.244227734375000000e+04
-6.241147656250000000e+04
-6.239573046875000000e+04
-6.239756640625000000e+04
-6.239605078125000000e+04
-6.239660546875000000e+04
-6.239507031250000000e+04
-6.239431250000000000e+04
-6.239307031250000000e+04
-6.239085156250000000e+04
-6.239414062500000000e+04
-6.239221875000000000e+04
-6.239509375000000000e+04
-6.244227734375000000e+04
-6.240432421875000000e+04
-6.238929296875000000e+04
-6.238253906250000000e+04
-6.238150781250000000e+04
-6.237692968750000000e+04
-6.237879687500000000e+04
-6.237994531250000000e+04
-6.237844531250000000e+04
-6.237560937500000000e+04
-6.238308984375000000e+04
-6.238044531250000000e+04
-6.238031640625000000e+04
-6.237763281250000000e+04
-6.237861328125000000e+04
-6.237729687500000000e+04
-6.237587500000000000e+04
-6.237742968750000000e+04
-6.237880468750000000e+04
-6.237779296875000000e+04
-6.237671875000000000e+04
-6.244227734375000000e+04
-6.241078125000000000e+04
-6.239453515625000000e+04
-6.238269921875000000e+04
-6.238255859375000000e+04
-6.237982812500000000e+04
-6.238112500000000000e+04
-6.238122656250000000e+04