-2.137190246582031250e+01 1.518463969230651855e+00 8.704040527343750000e+00 1.518463969230651855e+00 -4.889445877075195312e+01 5.283527374267578125e+00 8.704040527343750000e+00 5.283527374267578125e+00 -2.735153961181640625e+01
-1.395578098297119141e+01 -5.453426241874694824e-01 8.700649261474609375e+00 -5.453426241874694824e-01 -2.112725067138671875e+01 4.410014748573303223e-01 8.700649261474609375e+00 4.410014748573303223e-01 -1.153624534606933594e+01
-8.266117095947265625e+00 1.095200824737548828e+01 -2.537984609603881836e+00 1.095200824737548828e+01 -3.273603057861328125e+01 2.807060241699218750e+00 -2.537984609603881836e+00 2.807060241699218750e+00 -2.226268577575683594e+01
1.418398189544677734e+01 -3.753575384616851807e-01 -7.244993209838867188e+00 -3.753575384616851807e-01 -1.004176259040832520e+00 -2.673659515380859375e+01 -7.244993209838867188e+00 -2.673659515380859375e+01 -9.227564811706542969e+00
-2.345728111267089844e+01 -6.775969505310058594e+00 1.451579928398132324e-01 -6.775969505310058594e+00 -1.964328002929687500e+01 -9.610178947448730469e+00 1.451579928398132324e-01 -9.610178947448730469e+00 -1.542506027221679688e+01
-1.515555095672607422e+01 2.076042413711547852e+00 -8.357781410217285156e+00 2.076042413711547852e+00 -2.860297012329101562e+01 -1.460168075561523438e+01 -8.357781410217285156e+00 -1.460168075561523438e+01 -3.567659378051757812e+01
-1.615810012817382812e+01 -2.140496492385864258e+00 -9.357051849365234375e+00 -2.140496492385864258e+00 -4.744758987426757812e+01 9.625823020935058594e+00 -9.357051849365234375e+00 9.625823020935058594e+00 -4.526339721679687500e+01
-7.585499763488769531e+00 4.939987659454345703e+00 -1.016698360443115234e+01 4.939987659454345703e+00 -2.150371932983398438e+01 5.805988788604736328e+00 -1.016698360443115234e+01 5.805988788604736328e+00 -2.827871322631835938e+01
-4.223676300048828125e+01 1.757043004035949707e+00 -2.943733930587768555e+00 1.757043004035949707e+00 -4.561573791503906250e+01 6.392632126808166504e-01 -2.943733930587768555e+00 6.392632126808166504e-01 -3.178277015686035156e+01
-1.821037673950195312e+01 4.861423969268798828e+00 -4.971310138702392578e+00 4.861423969268798828e+00 -3.013230514526367188e+01 -1.765690040588378906e+01 -4.971310138702392578e+00 -1.765690040588378906e+01 -1.997737121582031250e+01
-1.547936534881591797e+01 5.194444179534912109e+00 -4.110766410827636719e+00 5.194444179534912109e+00 -1.286383819580078125e+01 -1.253603458404541016e+01 -4.110766410827636719e+00 -1.253603458404541016e+01 -1.734128570556640625e+01
-2.855326080322265625e+01 -1.614436745643615723e+00 -6.110647678375244141e+00 -1.614436745643615723e+00 -2.624999427795410156e+01 -1.762794613838195801e+00 -6.110647678375244141e+00 -1.762794613838195801e+00 -2.093344879150390625e+01
-2.918932151794433594e+01 3.506645679473876953e+00 -7.138516902923583984e-01 3.506645679473876953e+00 -2.247694015502929688e+01 6.574394106864929199e-01 -7.138516902923583984e-01 6.574394106864929199e-01 -4.082670593261718750e+01
-4.169109344482421875e+01 -1.132453632354736328e+01 -1.415610504150390625e+01 -1.132453632354736328e+01 -2.369295692443847656e+01 9.701374053955078125e+00 -1.415610504150390625e+01 9.701374053955078125e+00 -3.745674896240234375e+01
-1.401247119903564453e+01 -3.550163269042968750e+00 -8.327356338500976562e+00 -3.550163269042968750e+00 -2.735651588439941406e+01 -9.021521568298339844e+00 -8.327356338500976562e+00 -9.021521568298339844e+00 -3.170736312866210938e+01
-3.098089408874511719e+01 -6.198256969451904297e+00 -7.962124347686767578e+00 -6.198256969451904297e+00 -2.052308273315429688e+01 2.136749458312988281e+01 -7.962124347686767578e+00 2.136749458312988281e+01 -3.026438140869140625e+01
-1.507879543304443359e+01 -2.339315223693847656e+01 5.695819377899169922e+00 -2.339315223693847656e+01 8.921772003173828125e+00 5.333615303039550781e+00 5.695819377899169922e+00 5.333615303039550781e+00 -3.307963943481445312e+01
-1.169604897499084473e+00 -1.440926551818847656e+01 -7.180494308471679688e+00 -1.440926551818847656e+01 -2.309758377075195312e+01 1.219962239265441895e+00 -7.180494308471679688e+00 1.219962239265441895e+00 -4.081586456298828125e+01
-2.979382705688476562e+01 -6.926782608032226562e+00 3.324346065521240234e+00 -6.926782608032226562e+00 -4.453384017944335938e+01 -3.787942528724670410e-01 3.324346065521240234e+00 -3.787942528724670410e-01 -1.922211647033691406e+01
1.230575323104858398e+00 1.470535278320312500e+01 -8.969227790832519531e+00 1.470535278320312500e+01 -7.591724395751953125e+01 -9.322283744812011719e+00 -8.969227790832519531e+00 -9.322283744812011719e+00 -6.067136764526367188e+01
-4.234830093383789062e+01 -1.255881190299987793e+00 -8.023235201835632324e-01 -1.255881190299987793e+00 -2.325215721130371094e+01 7.277196645736694336e-01 -8.023235201835632324e-01 7.277196645736694336e-01 -2.933244323730468750e+01
1.213837528228759766e+01 1.105553150177001953e+00 -8.987518310546875000e+00 1.105553150177001953e+00 -2.521856307983398438e+01 -1.818292427062988281e+01 -8.987518310546875000e+00 -1.818292427062988281e+01 -2.885685157775878906e+01
-2.696184921264648438e+01 1.604109764099121094e+01 -4.427565574645996094e+00 1.604109764099121094e+01 -4.152103805541992188e+01 -1.775215339660644531e+01 -4.427565574645996094e+00 -1.775215339660644531e+01 -3.558117294311523438e+01
-2.572036552429199219e+01 1.475936293601989746e+00 -1.333291149139404297e+01 1.475936293601989746e+00 -2.806749534606933594e+01 -1.094521808624267578e+01 -1.333291149139404297e+01 -1.094521808624267578e+01 -2.770553970336914062e+01
2.181359052658081055e+00 -2.952243328094482422e+00 1.100851440429687500e+01 -2.952243328094482422e+00 -3.318043899536132812e+01 -1.579889392852783203e+01 1.100851440429687500e+01 -1.579889392852783203e+01 -6.734339714050292969e+00
-4.526048660278320312e+01 7.991878986358642578e+00 -1.504578948020935059e+00 7.991878986358642578e+00 -4.054069900512695312e+01 4.953452110290527344e+00 -1.504578948020935059e+00 4.953452110290527344e+00 -2.487447357177734375e+01
-9.273248314857482910e-01 -1.257086944580078125e+01 6.593944072723388672e+00 -1.257086944580078125e+01 -4.074653625488281250e+00 -1.823484230041503906e+01 6.593944072723388672e+00 -1.823484230041503906e+01 -1.406026935577392578e+01
-2.101879501342773438e+01 -1.676339530944824219e+01 1.547537994384765625e+01 -1.676339530944824219e+01 -1.468268203735351562e+01 -3.121119499206542969e+00 1.547537994384765625e+01 -3.121119499206542969e+00 -2.564679336547851562e+01
-2.262749433517456055e+00 1.977060890197753906e+01 -5.167977333068847656e+00 1.977060890197753906e+01 -2.086920928955078125e+01 1.253601908683776855e+00 -5.167977333068847656e+00 1.253601908683776855e+00 -1.252098274230957031e+01
-5.495489501953125000e+01 7.929055213928222656e+00 -6.006225585937500000e+00 7.929055213928222656e+00 -3.604326629638671875e+01 8.500593900680541992e-01 -6.006225585937500000e+00 8.500593900680541992e-01 -3.389207458496093750e+01
-5.816940784454345703e+00 -1.259342002868652344e+01 3.215409755706787109e+00 -1.259342002868652344e+01 -3.981460189819335938e+01 1.587031173706054688e+01 3.215409755706787109e+00 1.587031173706054688e+01 -2.096901130676269531e+01
-8.878485560417175293e-01 9.101716995239257812e+00 -2.929032564163208008e+00 9.101716995239257812e+00 -1.563494205474853516e+01 -3.790365457534790039e+00 -2.929032564163208008e+00 -3.790365457534790039e+00 -2.509513473510742188e+01
-1.574368953704833984e+01 -1.228244972229003906e+01 1.423460865020751953e+01 -1.228244972229003906e+01 -4.048558044433593750e+01 1.315749263763427734e+01 1.423460865020751953e+01 1.315749263763427734e+01 -2.551469802856445312e+01
-3.100485420227050781e+01 -1.251228809356689453e+00 -1.024481201171875000e+01 -1.251228809356689453e+00 5.753993511199951172e+00 6.872389793395996094e+00 -1.024481201171875000e+01 6.872389793395996094e+00 -1.829204750061035156e+01
-9.921200752258300781e+00 -9.797588348388671875e+00 -3.134485721588134766e+00 -9.797588348388671875e+00 -1.994529533386230469e+01 3.583530902862548828e+00 -3.134485721588134766e+00 3.583530902862548828e+00 -8.218400001525878906e+00
-2.675469207763671875e+01 -6.896013259887695312e+00 2.998656332492828369e-01 -6.896013259887695312e+00 -4.258041000366210938e+01 -3.142552614212036133e+00 2.998656332492828369e-01 -3.142552614212036133e+00 -4.781758499145507812e+01
-2.164372920989990234e+00 -6.303642749786376953e+00 9.471718788146972656e+00 -6.303642749786376953e+00 -9.024950981140136719e+00 -7.345217466354370117e-01 9.471718788146972656e+00 -7.345217466354370117e-01 -2.776411819458007812e+01
-3.340414047241210938e+01 -1.625347900390625000e+01 1.546492481231689453e+01 -1.625347900390625000e+01 -5.204206943511962891e+00 -6.709661006927490234e+00 1.546492481231689453e+01 -6.709661006927490234e+00 -4.146474075317382812e+01
-4.753488540649414062e+01 1.275976181030273438e+01 -7.863689422607421875e+00 1.275976181030273438e+01 -4.636988067626953125e+01 -5.669618129730224609e+00 -7.863689422607421875e+00 -5.669618129730224609e+00 2.313565731048583984e+00
7.500827789306640625e+00 1.474308252334594727e+00 -8.509863853454589844e+00 1.474308252334594727e+00 -1.657184791564941406e+01 -3.707195281982421875e+00 -8.509863853454589844e+00 -3.707195281982421875e+00 -8.026940345764160156e+00
-1.065271282196044922e+01 5.790661334991455078e+00 1.533797645568847656e+01 5.790661334991455078e+00 -4.181671905517578125e+01 9.714732170104980469e+00 1.533797645568847656e+01 9.714732170104980469e+00 -3.156623649597167969e+01
1.381269812583923340e+00 9.996615409851074219e+00 1.169148826599121094e+01 9.996615409851074219e+00 -4.643846130371093750e+01 5.434491634368896484e+00 1.169148826599121094e+01 5.434491634368896484e+00 1.216287165880203247e-02
-1.188683223724365234e+01 -3.571273326873779297e+00 -5.733037948608398438e+00 -3.571273326873779297e+00 -1.511772251129150391e+01 -4.095319747924804688e+00 -5.733037948608398438e+00 -4.095319747924804688e+00 -1.823986434936523438e+01
-3.746134948730468750e+01 8.695849418640136719e+00 3.731091737747192383e+00 8.695849418640136719e+00 -3.685589599609375000e+01 -1.177138900756835938e+01 3.731091737747192383e+00 -1.177138900756835938e+01 -2.365638160705566406e+01
-4.644347381591796875e+01 1.395918655395507812e+01 -1.927884483337402344e+01 1.395918655395507812e+01 -1.199455547332763672e+01 7.193193435668945312e+00 -1.927884483337402344e+01 7.193193435668945312e+00 -2.702806282043457031e+01
-1.523932266235351562e+01 1.972998428344726562e+01 -1.593577575683593750e+01 1.972998428344726562e+01 -2.385258865356445312e+01 -1.624629783630371094e+01 -1.593577575683593750e+01 -1.624629783630371094e+01 -1.776758766174316406e+01
-7.176068782806396484e+00 -1.366208839416503906e+01 1.173294544219970703e+01 -1.366208839416503906e+01 -5.252234458923339844e+00 -3.820955753326416016e+00 1.173294544219970703e+01 -3.820955753326416016e+00 -1.334063529968261719e+01
-4.973198318481445312e+01 -1.878139877319335938e+01 -1.051554489135742188e+01 -1.878139877319335938e+01 -1.115734100341796875e+01 1.669365692138671875e+01 -1.051554489135742188e+01 1.669365692138671875e+01 -3.559944915771484375e+01
-1.443963336944580078e+01 9.879825592041015625e+00 -1.548024368286132812e+01 9.879825592041015625e+00 -2.799105834960937500e+01 1.450080490112304688e+01 -1.548024368286132812e+01 1.450080490112304688e+01 -1.975642681121826172e+00
-3.209223937988281250e+01 1.421590745449066162e-01 7.801820039749145508e-01 1.421590745449066162e-01 -1.370029163360595703e+01 -1.047468304634094238e+00 7.801820039749145508e-01 -1.047468304634094238e+00 -6.273011398315429688e+01
-2.605137634277343750e+01 -5.504823684692382812e+00 -6.386079311370849609e+00 -5.504823684692382812e+00 -5.443433380126953125e+01 2.023035138845443726e-01 -6.386079311370849609e+00 2.023035138845443726e-01 -3.505951690673828125e+01
-3.663617324829101562e+01 4.582063674926757812e+00 4.980059146881103516e+00 4.582063674926757812e+00 -1.011070919036865234e+01 -3.509151697158813477e+00 4.980059146881103516e+00 -3.509151697158813477e+00 -3.652751159667968750e+01
-1.715186309814453125e+01 9.203001022338867188e+00 1.664434432983398438e+01 9.203001022338867188e+00 -3.505385589599609375e+01 -2.077804183959960938e+01 1.664434432983398438e+01 -2.077804183959960938e+01 -2.859976959228515625e+01
-2.570273780822753906e+01 -6.673579692840576172e+00 -1.013700962066650391e+01 -6.673579692840576172e+00 -2.537848091125488281e+01 -3.202215194702148438e+00 -1.013700962066650391e+01 -3.202215194702148438e+00 -3.404234695434570312e+01
-4.396621322631835938e+01 -9.547012329101562500e+00 1.589204120635986328e+01 -9.547012329101562500e+00 -7.371806335449218750e+01 -5.348756313323974609e+00 1.589204120635986328e+01 -5.348756313323974609e+00 -6.971685791015625000e+01
-1.339111518859863281e+01 -1.205039882659912109e+01 9.029004096984863281e+00 -1.205039882659912109e+01 -4.802211380004882812e+01 2.454539680480957031e+01 9.029004096984863281e+00 2.454539680480957031e+01 -3.333074569702148438e+01
-1.530657958984375000e+01 -1.582443618774414062e+01 6.771587848663330078e+00 -1.582443618774414062e+01 -2.182574844360351562e+01 -2.343527823686599731e-01 6.771587848663330078e+00 -2.343527823686599731e-01 -1.261750316619873047e+01
1.230575323104858398e+00 1.470535278320312500e+01 -8.969227790832519531e+00 1.470535278320312500e+01 -7.591724395751953125e+01 -9.322283744812011719e+00 -8.969227790832519531e+00 -9.322283744812011719e+00 -6.067136764526367188e+01
-5.636036682128906250e+01 1.606796646118164062e+01 6.205303668975830078e+00 1.606796646118164062e+01 -4.822821426391601562e+01 -2.629961490631103516e+00 6.205303668975830078e+00 -2.629961490631103516e+00 -4.522972488403320312e+01
-1.819233131408691406e+01 1.605685949325561523e+00 -2.141545295715332031e+01 1.605685949325561523e+00 -3.523072814941406250e+01 -8.092819213867187500e+00 -2.141545295715332031e+01 -8.092819213867187500e+00 -2.211001014709472656e+01
-1.654885673522949219e+01 1.111838150024414062e+01 -3.777662992477416992e+00 1.111838150024414062e+01 -5.020591354370117188e+01 -1.099927306175231934e+00 -3.777662992477416992e+00 -1.099927306175231934e+00 -2.881139945983886719e+01
-1.449083137512207031e+01 2.000071334838867188e+01 5.313935756683349609e+00 2.000071334838867188e+01 -1.092527198791503906e+01 -2.939123809337615967e-01 5.313935756683349609e+00 -2.939123809337615967e-01 -9.801321029663085938e+00
-3.899283599853515625e+01 8.146174430847167969e+00 5.204753398895263672e+00 8.146174430847167969e+00 -2.767947959899902344e+01 3.692616820335388184e-01 5.204753398895263672e+00 3.692616820335388184e-01 -4.631212234497070312e+01
-3.900211715698242188e+01 4.900323390960693359e+00 -2.135540246963500977e+00 4.900323390960693359e+00 -2.858492469787597656e+01 1.209914112091064453e+01 -2.135540246963500977e+00 1.209914112091064453e+01 -2.122808265686035156e+01
-4.478220748901367188e+01 -1.384442710876464844e+01 6.785034537315368652e-01 -1.384442710876464844e+01 1.268326377868652344e+01 -3.648815393447875977e+00 6.785034537315368652e-01 -3.648815393447875977e+00 -3.093744659423828125e+01
-3.430198669433593750e+01 2.180349349975585938e+00 3.257271051406860352e+00 2.180349349975585938e+00 -8.284024047851562500e+01 -1.748616027832031250e+01 3.257271051406860352e+00 -1.748616027832031250e+01 -3.443245315551757812e+01
1.529671955108642578e+01 2.595837402343750000e+01 1.157022666931152344e+01 2.595837402343750000e+01 -2.049277687072753906e+01 2.440093421936035156e+01 1.157022666931152344e+01 2.440093421936035156e+01 -2.716911697387695312e+01
8.963399529457092285e-01 -1.672582268714904785e+00 7.875637054443359375e+00 -1.672582268714904785e+00 -4.658780670166015625e+01 -1.478130221366882324e+00 7.875637054443359375e+00 -1.478130221366882324e+00 -4.693497848510742188e+01
-6.084723949432373047e+00 2.419607639312744141e+00 -2.313284301757812500e+01 2.419607639312744141e+00 -2.294564056396484375e+01 -1.797926139831542969e+01 -2.313284301757812500e+01 -1.797926139831542969e+01 -4.395357894897460938e+01
-2.784529685974121094e+01 1.684747934341430664e+00 9.556532502174377441e-01 1.684747934341430664e+00 -6.256859302520751953e+00 -6.490164279937744141e+00 9.556532502174377441e-01 -6.490164279937744141e+00 -1.294823551177978516e+01
-3.279675674438476562e+01 -7.862453460693359375e+00 1.114166831970214844e+01 -7.862453460693359375e+00 -2.969771194458007812e+01 2.365842103958129883e+00 1.114166831970214844e+01 2.365842103958129883e+00 -2.887148284912109375e+01
-4.159225463867187500e+01 2.938787221908569336e+00 -6.230580806732177734e+00 2.938787221908569336e+00 -3.376161193847656250e+01 5.053293108940124512e-01 -6.230580806732177734e+00 5.053293108940124512e-01 -4.317724609375000000e+01
-1.641548871994018555e+00 -1.030977630615234375e+01 1.451578140258789062e+01 -1.030977630615234375e+01 6.580761432647705078e+00 3.062040805816650391e+00 1.451578140258789062e+01 3.062040805816650391e+00 -1.122507572174072266e+01
-3.331797027587890625e+01 1.224963188171386719e+00 -2.806656122207641602e+00 1.224963188171386719e+00 -1.295893573760986328e+01 4.537316262722015381e-01 -2.806656122207641602e+00 4.537316262722015381e-01 -2.816189956665039062e+01
-2.919984245300292969e+01 4.545450210571289062e+00 -9.432632923126220703e-01 4.545450210571289062e+00 -1.309665107727050781e+01 2.641660451889038086e+00 -9.432632923126220703e-01 2.641660451889038086e+00 -1.938642120361328125e+01
-2.162487030029296875e+01 -7.012650012969970703e+00 1.498839569091796875e+01 -7.012650012969970703e+00 -2.995767021179199219e+01 6.065002918243408203e+00 1.498839569091796875e+01 6.065002918243408203e+00 -3.628007125854492188e+01
-2.250397109985351562e+01 -2.788026809692382812e+01 -1.317109107971191406e+00 -2.788026809692382812e+01 -2.936909484863281250e+01 -7.122036457061767578e+00 -1.317109107971191406e+00 -7.122036457061767578e+00 -9.091226577758789062e+00
-4.715505599975585938e+01 2.002115249633789062e+01 2.930748367309570312e+01 2.002115249633789062e+01 -5.620906829833984375e+01 8.283632397651672363e-01 2.930748367309570312e+01 8.283632397651672363e-01 -6.094250869750976562e+01
-2.023999977111816406e+01 4.281017303466796875e+00 1.559719848632812500e+01 4.281017303466796875e+00 -1.305611228942871094e+01 -5.587893009185791016e+00 1.559719848632812500e+01 -5.587893009185791016e+00 -1.839304733276367188e+01
-4.852154254913330078e+00 1.555023431777954102e+00 2.401006937026977539e+00 1.555023431777954102e+00 -2.148081207275390625e+01 -1.474812507629394531e+01 2.401006937026977539e+00 -1.474812507629394531e+01 5.330002307891845703e+00
-2.064630508422851562e+01 -2.905008316040039062e+00 2.534920454025268555e+00 -2.905008316040039062e+00 -4.289200210571289062e+01 -1.214568710327148438e+01 2.534920454025268555e+00 -1.214568710327148438e+01 -2.516517829895019531e+01
-4.035378265380859375e+01 9.324342727661132812e+00 -4.113554954528808594e+00 9.324342727661132812e+00 -8.014037132263183594e+00 1.748213958740234375e+01 -4.113554954528808594e+00 1.748213958740234375e+01 -6.928969383239746094e+00
1.230575323104858398e+00 1.470535278320312500e+01 -8.969227790832519531e+00 1.470535278320312500e+01 -7.591724395751953125e+01 -9.322283744812011719e+00 -8.969227790832519531e+00 -9.322283744812011719e+00 -6.067136764526367188e+01
-1.481202721595764160e+00 -6.444565773010253906e+00 -1.342457413673400879e+00 -6.444565773010253906e+00 -5.330331420898437500e+01 -1.231256389617919922e+01 -1.342457413673400879e+00 -1.231256389617919922e+01 2.864510059356689453e+00
-4.801094055175781250e+01 1.628378295898437500e+01 -1.845512962341308594e+01 1.628378295898437500e+01 -4.966590881347656250e+01 1.876457786560058594e+01 -1.845512962341308594e+01 1.876457786560058594e+01 -4.278744125366210938e+01
-1.913462257385253906e+01 1.082551765441894531e+01 -9.606489181518554688e+00 1.082551765441894531e+01 -2.836508274078369141e+00 -7.917492866516113281e+00 -9.606489181518554688e+00 -7.917492866516113281e+00 -4.380443572998046875e+01
-3.976379776000976562e+01 -8.806875348091125488e-01 -1.788309669494628906e+01 -8.806875348091125488e-01 -3.944002532958984375e+01 1.578571605682373047e+01 -1.788309669494628906e+01 1.578571605682373047e+01 -8.034489631652832031e+00
-1.396744441986083984e+01 -2.600127220153808594e+00 -1.322086715698242188e+01 -2.600127220153808594e+00 -2.422380256652832031e+01 3.846569061279296875e+00 -1.322086715698242188e+01 3.846569061279296875e+00 -2.237461090087890625e+01
-2.277152442932128906e+01 -3.044598102569580078e+00 -1.035079097747802734e+01 -3.044598102569580078e+00 -1.017447471618652344e+01 1.743142127990722656e+01 -1.035079097747802734e+01 1.743142127990722656e+01 -2.542398262023925781e+01
-5.981601333618164062e+01 2.501607704162597656e+01 4.865167617797851562e+00 2.501607704162597656e+01 -4.579087829589843750e+01 5.891731739044189453e+00 4.865167617797851562e+00 5.891731739044189453e+00 -4.716204071044921875e+01
-4.553411483764648438e+01 2.177099287509918213e-01 1.742092323303222656e+01 2.177099287509918213e-01 -4.372348022460937500e+01 5.481661319732666016e+00 1.742092323303222656e+01 5.481661319732666016e+00 -3.175078773498535156e+01
-3.993153381347656250e+01 5.738418579101562500e+00 8.997358322143554688e+00 5.738418579101562500e+00 -2.713441085815429688e+01 1.944452476501464844e+01 8.997358322143554688e+00 1.944452476501464844e+01 -1.903525733947753906e+01
-6.661908721923828125e+01 -4.988365650177001953e+00 1.156106090545654297e+01 -4.988365650177001953e+00 -4.803081130981445312e+01 5.473060011863708496e-01 1.156106090545654297e+01 5.473060011863708496e-01 -2.618992996215820312e+01
-3.114416313171386719e+01 1.392780113220214844e+01 -1.167735290527343750e+01 1.392780113220214844e+01 -1.598241996765136719e+01 1.833293199539184570e+00 -1.167735290527343750e+01 1.833293199539184570e+00 -3.643009567260742188e+01
-3.849443054199218750e+01 2.455441713333129883e+00 1.679278755187988281e+01 2.455441713333129883e+00 -2.173690605163574219e+01 5.576847553253173828e+00 1.679278755187988281e+01 5.576847553253173828e+00 -4.291475296020507812e+01
-4.834857940673828125e+01 -8.366970062255859375e+00 -4.509505271911621094e+00 -8.366970062255859375e+00 -3.628005218505859375e+01 1.543620586395263672e+01 -4.509505271911621094e+00 1.543620586395263672e+01 -4.484948348999023438e+01
-1.644080162048339844e+01 -8.002352714538574219e+00 -6.490320682525634766e+00 -8.002352714538574219e+00 -1.641289710998535156e+01 1.460340118408203125e+01 -6.490320682525634766e+00 1.460340118408203125e+01 -1.011124038696289062e+01
-5.235160827636718750e+01 8.969629287719726562e+00 -2.199510383605957031e+01 8.969629287719726562e+00 -3.484241485595703125e+01 6.456524599343538284e-03 -2.199510383605957031e+01 6.456524599343538284e-03 -5.161400604248046875e+01
-6.772203063964843750e+01 -1.509300327301025391e+01 6.874161720275878906e+00 -1.509300327301025391e+01 -5.306403350830078125e+01 1.143498229980468750e+01 6.874161720275878906e+00 1.143498229980468750e+01 -8.753311920166015625e+01
-2.099615859985351562e+01 -4.388216137886047363e-01 1.297616004943847656e+01 -4.388216137886047363e-01 -2.814856910705566406e+01 -3.734818220138549805e+00 1.297616004943847656e+01 -3.734818220138549805e+00 -3.213642501831054688e+01
2.088786888122558594e+01 -2.531992721557617188e+01 4.594515860080718994e-01 -2.531992721557617188e+01 -4.356758117675781250e+01 9.229091644287109375e+00 4.594515860080718994e-01 9.229091644287109375e+00 -1.022057533264160156e+01
-4.822734451293945312e+01 7.179708480834960938e+00 -2.371417284011840820e+00 7.179708480834960938e+00 -6.795653533935546875e+01 -1.229559040069580078e+01 -2.371417284011840820e+00 -1.229559040069580078e+01 -6.221481704711914062e+01
-4.479447937011718750e+01 2.832035303115844727e+00 -1.398722743988037109e+01 2.832035303115844727e+00 -5.107124710083007812e+01 2.995162963867187500e+01 -1.398722743988037109e+01 2.995162963867187500e+01 -5.943273162841796875e+01
-5.049163818359375000e+01 5.308617591857910156e+00 -4.520546436309814453e+00 5.308617591857910156e+00 -3.245299911499023438e+01 -1.489363312721252441e+00 -4.520546436309814453e+00 -1.489363312721252441e+00 -3.077698135375976562e+01
-4.154667282104492188e+01 -5.707850933074951172e+00 3.890916109085083008e+00 -5.707850933074951172e+00 -3.468632507324218750e+01 -2.658885765075683594e+01 3.890916109085083008e+00 -2.658885765075683594e+01 -5.258873748779296875e+01
-5.921166610717773438e+01 1.573459529876708984e+01 1.382336807250976562e+01 1.573459529876708984e+01 -2.318634986877441406e+01 1.847054481506347656e+00 1.382336807250976562e+01 1.847054481506347656e+00 3.088646650314331055e+00
-1.877997207641601562e+01 -2.547655105590820312e+00 1.967883110046386719e+00 -2.547655105590820312e+00 -3.021502685546875000e+01 -8.330139160156250000e+00 1.967883110046386719e+00 -8.330139160156250000e+00 -3.948062515258789062e+01
-2.708241081237792969e+01 1.086216926574707031e+00 -2.514739990234375000e+00 1.086216926574707031e+00 -1.687212753295898438e+01 6.852122306823730469e+00 -2.514739990234375000e+00 6.852122306823730469e+00 -6.083206176757812500e+01
-2.205290317535400391e+00 8.054022789001464844e+00 -4.199767708778381348e-01 8.054022789001464844e+00 -1.620845603942871094e+01 5.807248115539550781e+00 -4.199767708778381348e-01 5.807248115539550781e+00 -2.540150833129882812e+01
-3.854404067993164062e+01 -1.313262462615966797e+00 -3.407616043090820312e+01 -1.313262462615966797e+00 -5.248498916625976562e+01 -1.801432418823242188e+01 -3.407616043090820312e+01 -1.801432418823242188e+01 -2.552786254882812500e+01
-5.592858886718750000e+01 -1.780939674377441406e+01 9.087040901184082031e+00 -1.780939674377441406e+01 -6.314905166625976562e+01 1.144887208938598633e+00 9.087040901184082031e+00 1.144887208938598633e+00 -6.180958938598632812e+01
-5.230098724365234375e+01 -1.242729568481445312e+01 6.905320167541503906e+00 -1.242729568481445312e+01 -4.582194519042968750e+01 -1.821454429626464844e+01 6.905320167541503906e+00 -1.821454429626464844e+01 -5.499942779541015625e+01
-2.932353210449218750e+01 9.649997949600219727e-01 -8.776799201965332031e+00 9.649997949600219727e-01 -3.452975082397460938e+01 -6.670017719268798828e+00 -8.776799201965332031e+00 -6.670017719268798828e+00 -1.803401374816894531e+01
2.560890579223632812e+01 1.462535762786865234e+01 -7.345117568969726562e+00 1.462535762786865234e+01 -1.261051368713378906e+01 -5.412976264953613281e+00 -7.345117568969726562e+00 -5.412976264953613281e+00 -1.993015480041503906e+01
-2.917485809326171875e+01 1.343897914886474609e+01 -3.346421480178833008e+00 1.343897914886474609e+01 -2.001951408386230469e+01 -4.439597606658935547e+00 -3.346421480178833008e+00 -4.439597606658935547e+00 -1.399069404602050781e+01
-1.856028556823730469e+01 7.108075141906738281e+00 2.761912584304809570e+00 7.108075141906738281e+00 -4.499713516235351562e+01 7.924756526947021484e+00 2.761912584304809570e+00 7.924756526947021484e+00 -1.751660156250000000e+01
-3.251489639282226562e+01 2.420630693435668945e+00 -1.860342472791671753e-01 2.420630693435668945e+00 -2.876557922363281250e+01 1.006717777252197266e+01 -1.860342472791671753e-01 1.006717777252197266e+01 -2.216757202148437500e+01
-4.356402969360351562e+01 -1.161640167236328125e+01 7.376736164093017578e+00 -1.161640167236328125e+01 -3.580541992187500000e+01 -1.833211326599121094e+01 7.376736164093017578e+00 -1.833211326599121094e+01 6.077881336212158203e+00
-1.430856323242187500e+01 -7.797049045562744141e+00 -9.451361656188964844e+00 -7.797049045562744141e+00 -2.501690864562988281e+01 -9.771649360656738281e+00 -9.451361656188964844e+00 -9.771649360656738281e+00 -1.594119167327880859e+01
-5.158476257324218750e+01 -4.327316761016845703e+00 6.579391479492187500e+00 -4.327316761016845703e+00 -2.936550712585449219e+01 1.077605628967285156e+01 6.579391479492187500e+00 1.077605628967285156e+01 -4.096478271484375000e+01
-5.310777664184570312e+00 -1.270378112792968750e+01 -4.221130847930908203e+00 -1.270378112792968750e+01 -1.754490470886230469e+01 -1.045582199096679688e+01 -4.221130847930908203e+00 -1.045582199096679688e+01 4.570329189300537109e+00
-7.502511501312255859e+00 -3.680895566940307617e-01 7.625360965728759766e+00 -3.680895566940307617e-01 -2.557069969177246094e+01 4.028414726257324219e+00 7.625360965728759766e+00 4.028414726257324219e+00 -1.227486133575439453e+01
-4.128666305541992188e+01 -2.689466476440429688e+00 8.822443008422851562e+00 -2.689466476440429688e+00 -3.280916595458984375e+01 1.749575883150100708e-01 8.822443008422851562e+00 1.749575883150100708e-01 -3.554202270507812500e+01
-1.838713264465332031e+01 8.113214492797851562e+00 -1.106247806549072266e+01 8.113214492797851562e+00 -1.906420516967773438e+01 3.343096017837524414e+00 -1.106247806549072266e+01 3.343096017837524414e+00 -2.549018478393554688e+01
-2.166073226928710938e+01 1.313445663452148438e+01 -9.540590286254882812e+00 1.313445663452148438e+01 9.322242736816406250e+00 -2.268093490600585938e+01 -9.540590286254882812e+00 -2.268093490600585938e+01 -1.409092712402343750e+01
-2.325170516967773438e+01 -6.866168975830078125e+00 5.169353485107421875e-01 -6.866168975830078125e+00 -2.108499145507812500e+01 2.457235097885131836e+00 5.169353485107421875e-01 2.457235097885131836e+00 -1.710834503173828125e+01
-2.395890235900878906e+01 -7.352142333984375000e+00 -5.387324810028076172e+00 -7.352142333984375000e+00 -2.334125518798828125e+00 3.695586681365966797e+00 -5.387324810028076172e+00 3.695586681365966797e+00 -4.885938644409179688e+01
-4.288151168823242188e+01 2.296670341491699219e+01 7.880342483520507812e+00 2.296670341491699219e+01 -4.070707798004150391e+00 -7.731036543846130371e-01 7.880342483520507812e+00 -7.731036543846130371e-01 -1.867926025390625000e+01
-3.692350387573242188e+01 6.118670463562011719e+00 -1.577670478820800781e+01 6.118670463562011719e+00 -3.287869644165039062e+01 -1.335719776153564453e+01 -1.577670478820800781e+01 -1.335719776153564453e+01 -9.419061660766601562e+00