1.798100090026855469e+01 0.000000000000000000e+00 0.000000000000000000e+00 -1.560000032186508179e-01 1.855100059509277344e+01 0.000000000000000000e+00 7.900000363588333130e-02 9.600000083446502686e-02 1.853199958801269531e+01
1.828499984741210938e+01 0.000000000000000000e+00 0.000000000000000000e+00 -1.589999943971633911e-01 1.886499977111816406e+01 0.000000000000000000e+00 7.999999821186065674e-02 9.799999743700027466e-02 1.884600067138671875e+01
1.862599945068359375e+01 0.000000000000000000e+00 0.000000000000000000e+00 -1.620000004768371582e-01 1.921699905395507812e+01 0.000000000000000000e+00 8.200000226497650146e-02 9.899999946355819702e-02 1.919700050354003906e+01
1.866799926757812500e+01 0.000000000000000000e+00 0.000000000000000000e+00 -1.620000004768371582e-01 1.926000022888183594e+01 0.000000000000000000e+00 8.200000226497650146e-02 1.000000014901161194e-01 1.923999977111816406e+01
1.871400070190429688e+01 0.000000000000000000e+00 0.000000000000000000e+00 -1.620000004768371582e-01 1.930699920654296875e+01 0.000000000000000000e+00 8.200000226497650146e-02 1.000000014901161194e-01 1.928700065612792969e+01
1.881500053405761719e+01 0.000000000000000000e+00 0.000000000000000000e+00 -1.630000025033950806e-01 1.941200065612792969e+01 0.000000000000000000e+00 8.200000226497650146e-02 1.000000014901161194e-01 1.939100074768066406e+01
1.888299942016601562e+01 0.000000000000000000e+00 0.000000000000000000e+00 -1.640000045299530029e-01 1.948200035095214844e+01 0.000000000000000000e+00 8.299999684095382690e-02 1.010000035166740417e-01 1.946199989318847656e+01
1.905500030517578125e+01 0.000000000000000000e+00 0.000000000000000000e+00 -1.650000065565109253e-01 1.965999984741210938e+01 0.000000000000000000e+00 8.299999684095382690e-02 1.019999980926513672e-01 1.963899993896484375e+01
1.907799911499023438e+01 0.000000000000000000e+00 0.000000000000000000e+00 -1.659999936819076538e-01 1.968300056457519531e+01 0.000000000000000000e+00 8.299999684095382690e-02 1.019999980926513672e-01 1.966300010681152344e+01
1.904899978637695312e+01 0.000000000000000000e+00 0.000000000000000000e+00 -1.650000065565109253e-01 1.965299987792968750e+01 0.000000000000000000e+00 8.299999684095382690e-02 1.019999980926513672e-01 1.963199996948242188e+01
1.902400016784667969e+01 0.000000000000000000e+00 0.000000000000000000e+00 -1.650000065565109253e-01 1.962700080871582031e+01 0.000000000000000000e+00 8.299999684095382690e-02 1.019999980926513672e-01 1.960700035095214844e+01
1.914200019836425781e+01 0.000000000000000000e+00 0.000000000000000000e+00 -1.659999936819076538e-01 1.975000000000000000e+01 0.000000000000000000e+00 8.399999886751174927e-02 1.019999980926513672e-01 1.972900009155273438e+01
1.919300079345703125e+01 0.000000000000000000e+00 0.000000000000000000e+00 -1.669999957084655762e-01 1.980200004577636719e+01 0.000000000000000000e+00 8.399999886751174927e-02 1.019999980926513672e-01 1.978100013732910156e+01
1.919599914550781250e+01 0.000000000000000000e+00 0.000000000000000000e+00 -1.669999957084655762e-01 1.980500030517578125e+01 0.000000000000000000e+00 8.399999886751174927e-02 1.019999980926513672e-01 1.978400039672851562e+01
1.930800056457519531e+01 0.000000000000000000e+00 0.000000000000000000e+00 -1.679999977350234985e-01 1.992000007629394531e+01 0.000000000000000000e+00 8.399999886751174927e-02 1.030000001192092896e-01 1.989900016784667969e+01
1.917300033569335938e+01 0.000000000000000000e+00 0.000000000000000000e+00 -1.659999936819076538e-01 1.978100013732910156e+01 0.000000000000000000e+00 8.399999886751174927e-02 1.019999980926513672e-01 1.976099967956542969e+01
1.895400047302246094e+01 0.000000000000000000e+00 0.000000000000000000e+00 -1.650000065565109253e-01 1.955500030517578125e+01 0.000000000000000000e+00 8.299999684095382690e-02 1.010000035166740417e-01 1.953499984741210938e+01
1.947599983215332031e+01 0.000000000000000000e+00 0.000000000000000000e+00 -1.689999997615814209e-01 2.009399986267089844e+01 0.000000000000000000e+00 8.500000089406967163e-02 1.040000021457672119e-01 2.007299995422363281e+01
1.936899948120117188e+01 0.000000000000000000e+00 0.000000000000000000e+00 -1.679999977350234985e-01 1.998299980163574219e+01 0.000000000000000000e+00 8.500000089406967163e-02 1.030000001192092896e-01 1.996299934387207031e+01
1.939599990844726562e+01 0.000000000000000000e+00 0.000000000000000000e+00 -1.679999977350234985e-01 2.001199913024902344e+01 0.000000000000000000e+00 8.500000089406967163e-02 1.040000021457672119e-01 1.999099922180175781e+01
1.939900016784667969e+01 0.000000000000000000e+00 0.000000000000000000e+00 -1.679999977350234985e-01 2.001399993896484375e+01 0.000000000000000000e+00 8.500000089406967163e-02 1.040000021457672119e-01 1.999300003051757812e+01
1.931299972534179688e+01 0.000000000000000000e+00 0.000000000000000000e+00 -1.679999977350234985e-01 1.992600059509277344e+01 0.000000000000000000e+00 8.500000089406967163e-02 1.030000001192092896e-01 1.990500068664550781e+01
1.914500045776367188e+01 0.000000000000000000e+00 0.000000000000000000e+00 -1.659999936819076538e-01 1.975200080871582031e+01 0.000000000000000000e+00 8.399999886751174927e-02 1.019999980926513672e-01 1.973100090026855469e+01
1.915699958801269531e+01 0.000000000000000000e+00 0.000000000000000000e+00 -1.659999936819076538e-01 1.976499938964843750e+01 0.000000000000000000e+00 8.399999886751174927e-02 1.019999980926513672e-01 1.974399948120117188e+01
1.924900054931640625e+01 0.000000000000000000e+00 0.000000000000000000e+00 -1.669999957084655762e-01 1.986000061035156250e+01 0.000000000000000000e+00 8.399999886751174927e-02 1.030000001192092896e-01 1.983900070190429688e+01
1.944099998474121094e+01 0.000000000000000000e+00 0.000000000000000000e+00 -1.689999997615814209e-01 2.005699920654296875e+01 0.000000000000000000e+00 8.500000089406967163e-02 1.040000021457672119e-01 2.003599929809570312e+01
1.772500038146972656e+01 0.000000000000000000e+00 0.000000000000000000e+00 -1.539999991655349731e-01 1.828700065612792969e+01 0.000000000000000000e+00 7.800000160932540894e-02 9.499999880790710449e-02 1.826799964904785156e+01
1.793000030517578125e+01 0.000000000000000000e+00 0.000000000000000000e+00 -1.560000032186508179e-01 1.849799919128417969e+01 0.000000000000000000e+00 7.800000160932540894e-02 9.600000083446502686e-02 1.847900009155273438e+01
1.819300079345703125e+01 0.000000000000000000e+00 0.000000000000000000e+00 -1.580000072717666626e-01 1.877000045776367188e+01 0.000000000000000000e+00 7.999999821186065674e-02 9.700000286102294922e-02 1.875099945068359375e+01
1.872699928283691406e+01 0.000000000000000000e+00 0.000000000000000000e+00 -1.630000025033950806e-01 1.932099914550781250e+01 0.000000000000000000e+00 8.200000226497650146e-02 1.000000014901161194e-01 1.930100059509277344e+01
1.876799964904785156e+01 0.000000000000000000e+00 0.000000000000000000e+00 -1.630000025033950806e-01 1.936400032043457031e+01 0.000000000000000000e+00 8.200000226497650146e-02 1.000000014901161194e-01 1.934300041198730469e+01
1.868000030517578125e+01 0.000000000000000000e+00 0.000000000000000000e+00 -1.620000004768371582e-01 1.927300071716308594e+01 0.000000000000000000e+00 8.200000226497650146e-02 1.000000014901161194e-01 1.925300025939941406e+01
1.849099922180175781e+01 0.000000000000000000e+00 0.000000000000000000e+00 -1.609999984502792358e-01 1.907799911499023438e+01 0.000000000000000000e+00 8.100000023841857910e-02 9.899999946355819702e-02 1.905800056457519531e+01
1.853000068664550781e+01 0.000000000000000000e+00 0.000000000000000000e+00 -1.609999984502792358e-01 1.911700057983398438e+01 0.000000000000000000e+00 8.100000023841857910e-02 9.899999946355819702e-02 1.909799957275390625e+01
1.888599967956542969e+01 0.000000000000000000e+00 0.000000000000000000e+00 -1.640000045299530029e-01 1.948500061035156250e+01 0.000000000000000000e+00 8.299999684095382690e-02 1.010000035166740417e-01 1.946400070190429688e+01
1.893600082397460938e+01 0.000000000000000000e+00 0.000000000000000000e+00 -1.640000045299530029e-01 1.953599929809570312e+01 0.000000000000000000e+00 8.299999684095382690e-02 1.010000035166740417e-01 1.951600074768066406e+01
1.880200004577636719e+01 0.000000000000000000e+00 0.000000000000000000e+00 -1.630000025033950806e-01 1.939800071716308594e+01 0.000000000000000000e+00 8.200000226497650146e-02 1.000000014901161194e-01 1.937800025939941406e+01
1.905100059509277344e+01 0.000000000000000000e+00 0.000000000000000000e+00 -1.650000065565109253e-01 1.965500068664550781e+01 0.000000000000000000e+00 8.299999684095382690e-02 1.019999980926513672e-01 1.963500022888183594e+01
1.919899940490722656e+01 0.000000000000000000e+00 0.000000000000000000e+00 -1.669999957084655762e-01 1.980900001525878906e+01 0.000000000000000000e+00 8.399999886751174927e-02 1.030000001192092896e-01 1.978800010681152344e+01
1.906299972534179688e+01 0.000000000000000000e+00 0.000000000000000000e+00 -1.650000065565109253e-01 1.966799926757812500e+01 0.000000000000000000e+00 8.299999684095382690e-02 1.019999980926513672e-01 1.964699935913085938e+01
1.922599983215332031e+01 0.000000000000000000e+00 0.000000000000000000e+00 -1.669999957084655762e-01 1.983600044250488281e+01 0.000000000000000000e+00 8.399999886751174927e-02 1.030000001192092896e-01 1.981500053405761719e+01
1.912500000000000000e+01 0.000000000000000000e+00 0.000000000000000000e+00 -1.659999936819076538e-01 1.973200035095214844e+01 0.000000000000000000e+00 8.399999886751174927e-02 1.019999980926513672e-01 1.971100044250488281e+01
1.923399925231933594e+01 0.000000000000000000e+00 0.000000000000000000e+00 -1.669999957084655762e-01 1.984399986267089844e+01 0.000000000000000000e+00 8.399999886751174927e-02 1.030000001192092896e-01 1.982299995422363281e+01
1.967700004577636719e+01 0.000000000000000000e+00 0.000000000000000000e+00 -1.710000038146972656e-01 2.030200004577636719e+01 0.000000000000000000e+00 8.600000292062759399e-02 1.049999967217445374e-01 2.028000068664550781e+01
1.958399963378906250e+01 0.000000000000000000e+00 0.000000000000000000e+00 -1.700000017881393433e-01 2.020499992370605469e+01 0.000000000000000000e+00 8.600000292062759399e-02 1.049999967217445374e-01 2.018400001525878906e+01
1.900799942016601562e+01 0.000000000000000000e+00 0.000000000000000000e+00 -1.650000065565109253e-01 1.961100006103515625e+01 0.000000000000000000e+00 8.299999684095382690e-02 1.010000035166740417e-01 1.959000015258789062e+01
1.931999969482421875e+01 0.000000000000000000e+00 0.000000000000000000e+00 -1.679999977350234985e-01 1.993300056457519531e+01 0.000000000000000000e+00 8.500000089406967163e-02 1.030000001192092896e-01 1.991200065612792969e+01
1.927199935913085938e+01 0.000000000000000000e+00 0.000000000000000000e+00 -1.669999957084655762e-01 1.988400077819824219e+01 0.000000000000000000e+00 8.399999886751174927e-02 1.030000001192092896e-01 1.986300086975097656e+01
1.914200019836425781e+01 0.000000000000000000e+00 0.000000000000000000e+00 -1.659999936819076538e-01 1.975000000000000000e+01 0.000000000000000000e+00 8.399999886751174927e-02 1.019999980926513672e-01 1.972900009155273438e+01
1.924799919128417969e+01 0.000000000000000000e+00 0.000000000000000000e+00 -1.669999957084655762e-01 1.985899925231933594e+01 0.000000000000000000e+00 8.399999886751174927e-02 1.030000001192092896e-01 1.983799934387207031e+01
1.929899978637695312e+01 0.000000000000000000e+00 0.000000000000000000e+00 -1.679999977350234985e-01 1.991200065612792969e+01 0.000000000000000000e+00 8.399999886751174927e-02 1.030000001192092896e-01 1.989100074768066406e+01
1.916399955749511719e+01 0.000000000000000000e+00 0.000000000000000000e+00 -1.659999936819076538e-01 1.977199935913085938e+01 0.000000000000000000e+00 8.399999886751174927e-02 1.019999980926513672e-01 1.975099945068359375e+01
1.913500022888183594e+01 0.000000000000000000e+00 0.000000000000000000e+00 -1.659999936819076538e-01 1.974200057983398438e+01 0.000000000000000000e+00 8.399999886751174927e-02 1.019999980926513672e-01 1.972100067138671875e+01
1.908300018310546875e+01 0.000000000000000000e+00 0.000000000000000000e+00 -1.659999936819076538e-01 1.968799972534179688e+01 0.000000000000000000e+00 8.399999886751174927e-02 1.019999980926513672e-01 1.966799926757812500e+01
1.772500038146972656e+01 0.000000000000000000e+00 0.000000000000000000e+00 -1.539999991655349731e-01 1.828700065612792969e+01 0.000000000000000000e+00 7.800000160932540894e-02 9.499999880790710449e-02 1.826799964904785156e+01
1.797500038146972656e+01 0.000000000000000000e+00 0.000000000000000000e+00 -1.560000032186508179e-01 1.854500007629394531e+01 0.000000000000000000e+00 7.900000363588333130e-02 9.600000083446502686e-02 1.852599906921386719e+01
1.900900077819824219e+01 0.000000000000000000e+00 0.000000000000000000e+00 -1.650000065565109253e-01 1.961199951171875000e+01 0.000000000000000000e+00 8.299999684095382690e-02 1.010000035166740417e-01 1.959099960327148438e+01
1.928499984741210938e+01 0.000000000000000000e+00 0.000000000000000000e+00 -1.669999957084655762e-01 1.989699935913085938e+01 0.000000000000000000e+00 8.399999886751174927e-02 1.030000001192092896e-01 1.987599945068359375e+01
1.915699958801269531e+01 0.000000000000000000e+00 0.000000000000000000e+00 -1.659999936819076538e-01 1.976399993896484375e+01 0.000000000000000000e+00 8.399999886751174927e-02 1.019999980926513672e-01 1.974399948120117188e+01
1.925200080871582031e+01 0.000000000000000000e+00 0.000000000000000000e+00 -1.669999957084655762e-01 1.986199951171875000e+01 0.000000000000000000e+00 8.399999886751174927e-02 1.030000001192092896e-01 1.984199905395507812e+01
1.931299972534179688e+01 0.000000000000000000e+00 0.000000000000000000e+00 -1.679999977350234985e-01 1.992499923706054688e+01 0.000000000000000000e+00 8.500000089406967163e-02 1.030000001192092896e-01 1.990500068664550781e+01
1.953100013732910156e+01 0.000000000000000000e+00 0.000000000000000000e+00 -1.700000017881393433e-01 2.015099906921386719e+01 0.000000000000000000e+00 8.500000089406967163e-02 1.040000021457672119e-01 2.012999916076660156e+01
1.942300033569335938e+01 0.000000000000000000e+00 0.000000000000000000e+00 -1.689999997615814209e-01 2.003899955749511719e+01 0.000000000000000000e+00 8.500000089406967163e-02 1.040000021457672119e-01 2.001799964904785156e+01
1.929100036621093750e+01 0.000000000000000000e+00 0.000000000000000000e+00 -1.669999957084655762e-01 1.990299987792968750e+01 0.000000000000000000e+00 8.399999886751174927e-02 1.030000001192092896e-01 1.988199996948242188e+01
1.936499977111816406e+01 0.000000000000000000e+00 0.000000000000000000e+00 -1.679999977350234985e-01 1.997999954223632812e+01 0.000000000000000000e+00 8.500000089406967163e-02 1.030000001192092896e-01 1.995899963378906250e+01
1.949399948120117188e+01 0.000000000000000000e+00 0.000000000000000000e+00 -1.689999997615814209e-01 2.011199951171875000e+01 0.000000000000000000e+00 8.500000089406967163e-02 1.040000021457672119e-01 2.009099960327148438e+01
1.961199951171875000e+01 0.000000000000000000e+00 0.000000000000000000e+00 -1.700000017881393433e-01 2.023399925231933594e+01 0.000000000000000000e+00 8.600000292062759399e-02 1.049999967217445374e-01 2.021299934387207031e+01
1.962000083923339844e+01 0.000000000000000000e+00 0.000000000000000000e+00 -1.700000017881393433e-01 2.024300003051757812e+01 0.000000000000000000e+00 8.600000292062759399e-02 1.049999967217445374e-01 2.022100067138671875e+01
1.956100082397460938e+01 0.000000000000000000e+00 0.000000000000000000e+00 -1.700000017881393433e-01 2.018099975585937500e+01 0.000000000000000000e+00 8.600000292062759399e-02 1.040000021457672119e-01 2.015999984741210938e+01
1.951399993896484375e+01 0.000000000000000000e+00 0.000000000000000000e+00 -1.689999997615814209e-01 2.013299942016601562e+01 0.000000000000000000e+00 8.500000089406967163e-02 1.040000021457672119e-01 2.011199951171875000e+01
1.951899909973144531e+01 0.000000000000000000e+00 0.000000000000000000e+00 -1.689999997615814209e-01 2.013800048828125000e+01 0.000000000000000000e+00 8.500000089406967163e-02 1.040000021457672119e-01 2.011700057983398438e+01
1.926000022888183594e+01 0.000000000000000000e+00 0.000000000000000000e+00 -1.669999957084655762e-01 1.987100028991699219e+01 0.000000000000000000e+00 8.399999886751174927e-02 1.030000001192092896e-01 1.985000038146972656e+01
1.953400039672851562e+01 0.000000000000000000e+00 0.000000000000000000e+00 -1.700000017881393433e-01 2.015399932861328125e+01 0.000000000000000000e+00 8.500000089406967163e-02 1.040000021457672119e-01 2.013299942016601562e+01
2.008699989318847656e+01 0.000000000000000000e+00 0.000000000000000000e+00 -1.739999949932098389e-01 2.072400093078613281e+01 0.000000000000000000e+00 8.799999952316284180e-02 1.070000007748603821e-01 2.070199966430664062e+01
1.965900039672851562e+01 0.000000000000000000e+00 0.000000000000000000e+00 -1.710000038146972656e-01 2.028300094604492188e+01 0.000000000000000000e+00 8.600000292062759399e-02 1.049999967217445374e-01 2.026199913024902344e+01
1.952700042724609375e+01 0.000000000000000000e+00 0.000000000000000000e+00 -1.700000017881393433e-01 2.014699935913085938e+01 0.000000000000000000e+00 8.500000089406967163e-02 1.040000021457672119e-01 2.012599945068359375e+01
1.958699989318847656e+01 0.000000000000000000e+00 0.000000000000000000e+00 -1.700000017881393433e-01 2.020800018310546875e+01 0.000000000000000000e+00 8.600000292062759399e-02 1.049999967217445374e-01 2.018700027465820312e+01
1.979100036621093750e+01 0.000000000000000000e+00 0.000000000000000000e+00 -1.720000058412551880e-01 2.041900062561035156e+01 0.000000000000000000e+00 8.699999749660491943e-02 1.059999987483024597e-01 2.039800071716308594e+01
1.986000061035156250e+01 0.000000000000000000e+00 0.000000000000000000e+00 -1.720000058412551880e-01 2.048999977111816406e+01 0.000000000000000000e+00 8.699999749660491943e-02 1.059999987483024597e-01 2.046899986267089844e+01
1.992200088500976562e+01 0.000000000000000000e+00 0.000000000000000000e+00 -1.729999929666519165e-01 2.055400085449218750e+01 0.000000000000000000e+00 8.699999749660491943e-02 1.059999987483024597e-01 2.053199958801269531e+01
1.992099952697753906e+01 0.000000000000000000e+00 0.000000000000000000e+00 -1.729999929666519165e-01 2.055299949645996094e+01 0.000000000000000000e+00 8.699999749660491943e-02 1.059999987483024597e-01 2.053100013732910156e+01
1.772500038146972656e+01 0.000000000000000000e+00 0.000000000000000000e+00 -1.539999991655349731e-01 1.828700065612792969e+01 0.000000000000000000e+00 7.800000160932540894e-02 9.499999880790710449e-02 1.826799964904785156e+01
1.835199928283691406e+01 0.000000000000000000e+00 0.000000000000000000e+00 -1.589999943971633911e-01 1.893499946594238281e+01 0.000000000000000000e+00 7.999999821186065674e-02 9.799999743700027466e-02 1.891500091552734375e+01
1.851799964904785156e+01 0.000000000000000000e+00 0.000000000000000000e+00 -1.609999984502792358e-01 1.910600090026855469e+01 0.000000000000000000e+00 8.100000023841857910e-02 9.899999946355819702e-02 1.908600044250488281e+01
1.878499984741210938e+01 0.000000000000000000e+00 0.000000000000000000e+00 -1.630000025033950806e-01 1.937999916076660156e+01 0.000000000000000000e+00 8.200000226497650146e-02 1.000000014901161194e-01 1.936000061035156250e+01
1.925799942016601562e+01 0.000000000000000000e+00 0.000000000000000000e+00 -1.669999957084655762e-01 1.986899948120117188e+01 0.000000000000000000e+00 8.399999886751174927e-02 1.030000001192092896e-01 1.984799957275390625e+01
1.909399986267089844e+01 0.000000000000000000e+00 0.000000000000000000e+00 -1.659999936819076538e-01 1.970000076293945312e+01 0.000000000000000000e+00 8.399999886751174927e-02 1.019999980926513672e-01 1.967900085449218750e+01
1.916600036621093750e+01 0.000000000000000000e+00 0.000000000000000000e+00 -1.659999936819076538e-01 1.977400016784667969e+01 0.000000000000000000e+00 8.399999886751174927e-02 1.019999980926513672e-01 1.975399971008300781e+01
1.945000076293945312e+01 0.000000000000000000e+00 0.000000000000000000e+00 -1.689999997615814209e-01 2.006699943542480469e+01 0.000000000000000000e+00 8.500000089406967163e-02 1.040000021457672119e-01 2.004599952697753906e+01
1.940699958801269531e+01 0.000000000000000000e+00 0.000000000000000000e+00 -1.679999977350234985e-01 2.002300071716308594e+01 0.000000000000000000e+00 8.500000089406967163e-02 1.040000021457672119e-01 2.000200080871582031e+01
1.917600059509277344e+01 0.000000000000000000e+00 0.000000000000000000e+00 -1.659999936819076538e-01 1.978499984741210938e+01 0.000000000000000000e+00 8.399999886751174927e-02 1.019999980926513672e-01 1.976399993896484375e+01
1.912800025939941406e+01 0.000000000000000000e+00 0.000000000000000000e+00 -1.659999936819076538e-01 1.973500061035156250e+01 0.000000000000000000e+00 8.399999886751174927e-02 1.019999980926513672e-01 1.971400070190429688e+01
1.917000007629394531e+01 0.000000000000000000e+00 0.000000000000000000e+00 -1.659999936819076538e-01 1.977899932861328125e+01 0.000000000000000000e+00 8.399999886751174927e-02 1.019999980926513672e-01 1.975799942016601562e+01
1.935000038146972656e+01 0.000000000000000000e+00 0.000000000000000000e+00 -1.679999977350234985e-01 1.996400070190429688e+01 0.000000000000000000e+00 8.500000089406967163e-02 1.030000001192092896e-01 1.994300079345703125e+01
1.927300071716308594e+01 0.000000000000000000e+00 0.000000000000000000e+00 -1.669999957084655762e-01 1.988400077819824219e+01 0.000000000000000000e+00 8.399999886751174927e-02 1.030000001192092896e-01 1.986400032043457031e+01
1.962400054931640625e+01 0.000000000000000000e+00 0.000000000000000000e+00 -1.700000017881393433e-01 2.024699974060058594e+01 0.000000000000000000e+00 8.600000292062759399e-02 1.049999967217445374e-01 2.022599983215332031e+01
1.943300056457519531e+01 0.000000000000000000e+00 0.000000000000000000e+00 -1.689999997615814209e-01 2.004999923706054688e+01 0.000000000000000000e+00 8.500000089406967163e-02 1.040000021457672119e-01 2.002899932861328125e+01
1.930100059509277344e+01 0.000000000000000000e+00 0.000000000000000000e+00 -1.679999977350234985e-01 1.991399955749511719e+01 0.000000000000000000e+00 8.399999886751174927e-02 1.030000001192092896e-01 1.989299964904785156e+01
1.934900093078613281e+01 0.000000000000000000e+00 0.000000000000000000e+00 -1.679999977350234985e-01 1.996299934387207031e+01 0.000000000000000000e+00 8.500000089406967163e-02 1.030000001192092896e-01 1.994199943542480469e+01
1.942099952697753906e+01 0.000000000000000000e+00 0.000000000000000000e+00 -1.689999997615814209e-01 2.003700065612792969e+01 0.000000000000000000e+00 8.500000089406967163e-02 1.040000021457672119e-01 2.001700019836425781e+01
1.944300079345703125e+01 0.000000000000000000e+00 0.000000000000000000e+00 -1.689999997615814209e-01 2.005999946594238281e+01 0.000000000000000000e+00 8.500000089406967163e-02 1.040000021457672119e-01 2.003899955749511719e+01
1.914900016784667969e+01 0.000000000000000000e+00 0.000000000000000000e+00 -1.659999936819076538e-01 1.975600051879882812e+01 0.000000000000000000e+00 8.399999886751174927e-02 1.019999980926513672e-01 1.973500061035156250e+01
1.930800056457519531e+01 0.000000000000000000e+00 0.000000000000000000e+00 -1.679999977350234985e-01 1.992099952697753906e+01 0.000000000000000000e+00 8.399999886751174927e-02 1.030000001192092896e-01 1.989999961853027344e+01
1.974500083923339844e+01 0.000000000000000000e+00 0.000000000000000000e+00 -1.710000038146972656e-01 2.037100028991699219e+01 0.000000000000000000e+00 8.600000292062759399e-02 1.049999967217445374e-01 2.035000038146972656e+01
1.978400039672851562e+01 0.000000000000000000e+00 0.000000000000000000e+00 -1.720000058412551880e-01 2.041200065612792969e+01 0.000000000000000000e+00 8.699999749660491943e-02 1.059999987483024597e-01 2.039100074768066406e+01
1.954999923706054688e+01 0.000000000000000000e+00 0.000000000000000000e+00 -1.700000017881393433e-01 2.017000007629394531e+01 0.000000000000000000e+00 8.600000292062759399e-02 1.040000021457672119e-01 2.014900016784667969e+01
1.772500038146972656e+01 0.000000000000000000e+00 0.000000000000000000e+00 -1.539999991655349731e-01 1.828700065612792969e+01 0.000000000000000000e+00 7.800000160932540894e-02 9.499999880790710449e-02 1.826799964904785156e+01
1.928100013732910156e+01 0.000000000000000000e+00 0.000000000000000000e+00 -1.669999957084655762e-01 1.989299964904785156e+01 0.000000000000000000e+00 8.399999886751174927e-02 1.030000001192092896e-01 1.987199974060058594e+01
1.946599960327148438e+01 0.000000000000000000e+00 0.000000000000000000e+00 -1.689999997615814209e-01 2.008300018310546875e+01 0.000000000000000000e+00 8.500000089406967163e-02 1.040000021457672119e-01 2.006200027465820312e+01
1.912800025939941406e+01 0.000000000000000000e+00 0.000000000000000000e+00 -1.659999936819076538e-01 1.973399925231933594e+01 0.000000000000000000e+00 8.399999886751174927e-02 1.019999980926513672e-01 1.971400070190429688e+01
1.940399932861328125e+01 0.000000000000000000e+00 0.000000000000000000e+00 -1.679999977350234985e-01 2.002000045776367188e+01 0.000000000000000000e+00 8.500000089406967163e-02 1.040000021457672119e-01 1.999900054931640625e+01
1.948900032043457031e+01 0.000000000000000000e+00 0.000000000000000000e+00 -1.689999997615814209e-01 2.010799980163574219e+01 0.000000000000000000e+00 8.500000089406967163e-02 1.040000021457672119e-01 2.008699989318847656e+01
1.946899986267089844e+01 0.000000000000000000e+00 0.000000000000000000e+00 -1.689999997615814209e-01 2.008699989318847656e+01 0.000000000000000000e+00 8.500000089406967163e-02 1.040000021457672119e-01 2.006599998474121094e+01
1.949699974060058594e+01 0.000000000000000000e+00 0.000000000000000000e+00 -1.689999997615814209e-01 2.011499977111816406e+01 0.000000000000000000e+00 8.500000089406967163e-02 1.040000021457672119e-01 2.009499931335449219e+01
1.963599967956542969e+01 0.000000000000000000e+00 0.000000000000000000e+00 -1.700000017881393433e-01 2.025900077819824219e+01 0.000000000000000000e+00 8.600000292062759399e-02 1.049999967217445374e-01 2.023800086975097656e+01
1.985300064086914062e+01 0.000000000000000000e+00 0.000000000000000000e+00 -1.720000058412551880e-01 2.048299980163574219e+01 0.000000000000000000e+00 8.699999749660491943e-02 1.059999987483024597e-01 2.046199989318847656e+01
1.992399978637695312e+01 0.000000000000000000e+00 0.000000000000000000e+00 -1.729999929666519165e-01 2.055599975585937500e+01 0.000000000000000000e+00 8.699999749660491943e-02 1.059999987483024597e-01 2.053400039672851562e+01
1.982299995422363281e+01 0.000000000000000000e+00 0.000000000000000000e+00 -1.720000058412551880e-01 2.045199966430664062e+01 0.000000000000000000e+00 8.699999749660491943e-02 1.059999987483024597e-01 2.043099975585937500e+01
1.976199913024902344e+01 0.000000000000000000e+00 0.000000000000000000e+00 -1.720000058412551880e-01 2.038899993896484375e+01 0.000000000000000000e+00 8.600000292062759399e-02 1.059999987483024597e-01 2.036800003051757812e+01
1.952799987792968750e+01 0.000000000000000000e+00 0.000000000000000000e+00 -1.700000017881393433e-01 2.014800071716308594e+01 0.000000000000000000e+00 8.500000089406967163e-02 1.040000021457672119e-01 2.012700080871582031e+01
1.943300056457519531e+01 0.000000000000000000e+00 0.000000000000000000e+00 -1.689999997615814209e-01 2.004999923706054688e+01 0.000000000000000000e+00 8.500000089406967163e-02 1.040000021457672119e-01 2.002899932861328125e+01
2.008600044250488281e+01 0.000000000000000000e+00 0.000000000000000000e+00 -1.739999949932098389e-01 2.072299957275390625e+01 0.000000000000000000e+00 8.799999952316284180e-02 1.070000007748603821e-01 2.070199966430664062e+01
1.993000030517578125e+01 0.000000000000000000e+00 0.000000000000000000e+00 -1.729999929666519165e-01 2.056299972534179688e+01 0.000000000000000000e+00 8.699999749660491943e-02 1.059999987483024597e-01 2.054100036621093750e+01
1.772500038146972656e+01 0.000000000000000000e+00 0.000000000000000000e+00 -1.539999991655349731e-01 1.828700065612792969e+01 0.000000000000000000e+00 7.800000160932540894e-02 9.499999880790710449e-02 1.826799964904785156e+01
1.801899909973144531e+01 0.000000000000000000e+00 0.000000000000000000e+00 -1.560000032186508179e-01 1.859099960327148438e+01 0.000000000000000000e+00 7.900000363588333130e-02 9.600000083446502686e-02 1.857099914550781250e+01
1.844400024414062500e+01 0.000000000000000000e+00 0.000000000000000000e+00 -1.599999964237213135e-01 1.902899932861328125e+01 0.000000000000000000e+00 8.100000023841857910e-02 9.799999743700027466e-02 1.900900077819824219e+01
1.855699920654296875e+01 0.000000000000000000e+00 0.000000000000000000e+00 -1.609999984502792358e-01 1.914500045776367188e+01 0.000000000000000000e+00 8.100000023841857910e-02 9.899999946355819702e-02 1.912599945068359375e+01
1.863100051879882812e+01 0.000000000000000000e+00 0.000000000000000000e+00 -1.620000004768371582e-01 1.922200012207031250e+01 0.000000000000000000e+00 8.200000226497650146e-02 9.899999946355819702e-02 1.920199966430664062e+01
1.877000045776367188e+01 0.000000000000000000e+00 0.000000000000000000e+00 -1.630000025033950806e-01 1.936499977111816406e+01 0.000000000000000000e+00 8.200000226497650146e-02 1.000000014901161194e-01 1.934499931335449219e+01
1.931699943542480469e+01 0.000000000000000000e+00 0.000000000000000000e+00 -1.679999977350234985e-01 1.993000030517578125e+01 0.000000000000000000e+00 8.500000089406967163e-02 1.030000001192092896e-01 1.990900039672851562e+01
1.937100028991699219e+01 0.000000000000000000e+00 0.000000000000000000e+00 -1.679999977350234985e-01 1.998500061035156250e+01 0.000000000000000000e+00 8.500000089406967163e-02 1.030000001192092896e-01 1.996500015258789062e+01
1.967600059509277344e+01 0.000000000000000000e+00 0.000000000000000000e+00 -1.710000038146972656e-01 2.029999923706054688e+01 0.000000000000000000e+00 8.600000292062759399e-02 1.049999967217445374e-01 2.027899932861328125e+01