-6.240856640625000000e+04
-6.240581640625000000e+04
-6.237879296875000000e+04
-6.237878906250000000e+04
-6.237228125000000000e+04
-6.237489453125000000e+04
-6.237466015625000000e+04
-6.237049609375000000e+04
-6.237055078125000000e+04
-6.237211328125000000e+04
-6.237014453125000000e+04
-6.237124218750000000e+04
-6.236514453125000000e+04
-6.237005859375000000e+04
-6.236959765625000000e+04
-6.237210156250000000e+04
-6.237112890625000000e+04
-6.236987890625000000e+04
-6.237049218750000000e+04
-6.236714453125000000e+04
-6.236617578125000000e+04
-6.236682421875000000e+04
-6.236797656250000000e+04
-6.236982031250000000e+04
-6.236718750000000000e+04
-6.236316015625000000e+04
-6.244278906250000000e+04
-6.241025781250000000e+04
-6.240585937500000000e+04
-6.237757031250000000e+04
-6.237671875000000000e+04
-6.237470312500000000e+04
-6.237937109375000000e+04
-6.237641796875000000e+04
-6.237577734375000000e+04
-6.237552734375000000e+04
-6.237499609375000000e+04
-6.237133593750000000e+04
-6.236998437500000000e+04
-6.237290234375000000e+04
-6.236913671875000000e+04
-6.236759765625000000e+04
-6.236464062500000000e+04
-6.236431250000000000e+04
-6.236639843750000000e+04
-6.237101953125000000e+04
-6.237323828125000000e+04
-6.236903125000000000e+04
-6.236720703125000000e+04
-6.236857812500000000e+04
-6.236888671875000000e+04
-6.236865234375000000e+04
-6.236698828125000000e+04
-6.237067968750000000e+04
-6.244278906250000000e+04
-6.240437500000000000e+04
-6.236837109375000000e+04
-6.236139062500000000e+04
-6.236554296875000000e+04
-6.236182031250000000e+04
-6.235887500000000000e+04
-6.235717187500000000e+04
-6.235676171875000000e+04
-6.235943750000000000e+04
-6.235774218750000000e+04
-6.235695703125000000e+04
-6.235007031250000000e+04
-6.235422265625000000e+04
-6.235484375000000000e+04
-6.235475781250000000e+04
-6.235269531250000000e+04
-6.235591796875000000e+04
-6.235820312500000000e+04
-6.234726562500000000e+04
-6.235523046875000000e+04
-6.235467578125000000e+04
-6.235800000000000000e+04
-6.235786718750000000e+04
-6.235578515625000000e+04
-6.235024609375000000e+04
-6.234997656250000000e+04
-6.244278906250000000e+04
-6.240096484375000000e+04
-6.237939453125000000e+04
-6.237240625000000000e+04
-6.236055468750000000e+04
-6.236461718750000000e+04
-6.235983203125000000e+04
-6.235976953125000000e+04
-6.236247265625000000e+04
-6.236323046875000000e+04
-6.236707031250000000e+04
-6.236529687500000000e+04
-6.235721875000000000e+04
-6.236044140625000000e+04
-6.235985546875000000e+04
-6.235971875000000000e+04
-6.235977343750000000e+04
-6.235980859375000000e+04
-6.236492578125000000e+04
-6.236494921875000000e+04
-6.235893750000000000e+04
-6.236005859375000000e+04
-6.235203906250000000e+04
-6.235371093750000000e+04
-6.235638281250000000e+04
-6.244278906250000000e+04
-6.235388671875000000e+04
-6.234882812500000000e+04
-6.235064843750000000e+04
-6.235283203125000000e+04
-6.234457031250000000e+04
-6.234539843750000000e+04
-6.234223046875000000e+04
-6.234036718750000000e+04
-6.234076953125000000e+04
-6.234121484375000000e+04
-6.234053515625000000e+04
-6.234134765625000000e+04
-6.233989453125000000e+04
-6.233867968750000000e+04
-6.233647265625000000e+04
-6.233547265625000000e+04
-6.244278906250000000e+04
-6.240211328125000000e+04
-6.239437890625000000e+04
-6.238623046875000000e+04
-6.237591015625000000e+04
-6.236998828125000000e+04
-6.235371093750000000e+04
-6.235525781250000000e+04
-6.234528515625000000e+04
-6.235094531250000000e+04
-6.235083203125000000e+04
-6.235169921875000000e+04
-6.234119140625000000e+04
-6.234957812500000000e+04
-6.234418750000000000e+04
-6.234000390625000000e+04
-6.234232421875000000e+04
-6.234370703125000000e+04
-6.234692968750000000e+04
-6.234512890625000000e+04
-6.234407031250000000e+04
-6.234169140625000000e+04
-6.233994140625000000e+04
-6.233853906250000000e+04
-6.234081250000000000e+04
-6.244216406250000000e+04
-6.241010546875000000e+04
-6.238150390625000000e+04
-6.236825781250000000e+04
-6.237082812500000000e+04
-6.237379296875000000e+04
-6.237684765625000000e+04
-6.237421875000000000e+04
-6.237406640625000000e+04
-6.237249218750000000e+04
-6.237311718750000000e+04
-6.237399609375000000e+04
-6.236812109375000000e+04
-6.236950000000000000e+04
-6.236867968750000000e+04
-6.236924218750000000e+04
-6.236421875000000000e+04
-6.236510546875000000e+04
-6.236919140625000000e+04
-6.240515234375000000e+04
-6.238785546875000000e+04
-6.238171484375000000e+04
-6.237629687500000000e+04
-6.237321875000000000e+04
-6.237193750000000000e+04
-6.237255468750000000e+04
-6.237217578125000000e+04
-6.237353906250000000e+04
-6.237367187500000000e+04
-6.237323828125000000e+04
-6.237109375000000000e+04
-6.237260546875000000e+04
-6.236920703125000000e+04
-6.236948046875000000e+04
-6.237609765625000000e+04
-6.244216406250000000e+04
-6.237643359375000000e+04
-6.235938671875000000e+04
-6.235796484375000000e+04
-6.236048828125000000e+04
-6.235557421875000000e+04
-6.235760937500000000e+04
-6.235412890625000000e+04
-6.234862500000000000e+04
-6.235632812500000000e+04
-6.235222656250000000e+04
-6.235212500000000000e+04
-6.235496484375000000e+04
-6.235893359375000000e+04
-6.235917578125000000e+04
-6.235554687500000000e+04
-6.235338281250000000e+04
-6.235442968750000000e+04
-6.235742968750000000e+04
-6.235841406250000000e+04
-6.244216406250000000e+04
-6.237730859375000000e+04
-6.236800781250000000e+04
-6.236250000000000000e+04
-6.236446093750000000e+04
-6.235882031250000000e+04
-6.236173437500000000e+04
-6.236264062500000000e+04
-6.235959765625000000e+04
-6.236131250000000000e+04
-6.235780859375000000e+04
-6.235412500000000000e+04
-6.235731250000000000e+04
-6.235507812500000000e+04
-6.234676171875000000e+04
-6.234981640625000000e+04
-6.235388671875000000e+04
-6.235544531250000000e+04
-6.235369140625000000e+04
-6.235979687500000000e+04
-6.244216406250000000e+04
-6.238603125000000000e+04
-6.234745703125000000e+04
-6.235512890625000000e+04
-6.235035156250000000e+04
-6.235251953125000000e+04
-6.234833984375000000e+04
-6.234853125000000000e+04
-6.234329687500000000e+04
-6.234180859375000000e+04
-6.233341796875000000e+04
-6.233827343750000000e+04
-6.234575781250000000e+04
-6.234755468750000000e+04
-6.234178125000000000e+04
-6.233911328125000000e+04
-6.234423437500000000e+04
-6.234367187500000000e+04
-6.234382421875000000e+04
-6.244216406250000000e+04
-6.239575000000000000e+04
-6.238723437500000000e+04
-6.238071875000000000e+04
-6.235159375000000000e+04
-6.235615625000000000e+04
-6.235697656250000000e+04
-6.234884765625000000e+04
-6.234462500000000000e+04
-6.235281640625000000e+04
-6.235118750000000000e+04
-6.234081250000000000e+04
-6.233471484375000000e+04
-6.233978125000000000e+04
-6.233853515625000000e+04
-6.234129687500000000e+04
-6.234110937500000000e+04
-6.234426562500000000e+04
-6.233931640625000000e+04
-6.244164453125000000e+04
-6.240935546875000000e+04
-6.238651171875000000e+04
-6.237361718750000000e+04
-6.237684765625000000e+04
-6.237435156250000000e+04
-6.237208984375000000e+04
-6.237168359375000000e+04
-6.236803906250000000e+04
-6.237668750000000000e+04
-6.237058203125000000e+04
-6.237339062500000000e+04
-6.237550781250000000e+04
-6.237531250000000000e+04
-6.237042968750000000e+04
-6.237205078125000000e+04
-6.236990234375000000e+04
-6.236809375000000000e+04
-6.237049609375000000e+04
-6.237658593750000000e+04
-6.237796875000000000e+04
-6.240384765625000000e+04
-6.239523828125000000e+04
-6.238065234375000000e+04
-6.237762890625000000e+04
-6.237729296875000000e+04
-6.237657421875000000e+04
-6.237786328125000000e+04
-6.237549218750000000e+04
-6.237487890625000000e+04
-6.237438281250000000e+04
-6.237496484375000000e+04
-6.237210156250000000e+04
-6.237380468750000000e+04
-6.237960937500000000e+04
-6.237528125000000000e+04
-6.236983593750000000e+04
-6.236882031250000000e+04
-6.237391796875000000e+04
-6.237591406250000000e+04
-6.237481250000000000e+04
-6.236980468750000000e+04
-6.236741015625000000e+04
-6.236707812500000000e+04
-6.236210156250000000e+04
-6.236719921875000000e+04
-6.236671484375000000e+04
-6.236860156250000000e+04
-6.236665234375000000e+04
-6.236919140625000000e+04
-6.240096484375000000e+04
-6.237281250000000000e+04
-6.237197265625000000e+04
-6.235596875000000000e+04
-6.236108203125000000e+04
-6.235724218750000000e+04
-6.236180078125000000e+04
-6.235843750000000000e+04
-6.236065625000000000e+04
-6.236387109375000000e+04
-6.236309375000000000e+04
-6.235764453125000000e+04
-6.235462109375000000e+04
-6.235708593750000000e+04
-6.236058984375000000e+04
-6.236054296875000000e+04
-6.236003515625000000e+04
-6.235940234375000000e+04
-6.235325390625000000e+04
-6.235444921875000000e+04
-6.235786328125000000e+04
-6.235753125000000000e+04
-6.235335156250000000e+04
-6.244164453125000000e+04
-6.240549609375000000e+04
-6.237093750000000000e+04
-6.236366796875000000e+04
-6.236495703125000000e+04
-6.236602734375000000e+04
-6.236404296875000000e+04
-6.236410546875000000e+04
-6.236641015625000000e+04
-6.236671093750000000e+04
-6.236085937500000000e+04
-6.236469531250000000e+04
-6.236380468750000000e+04
-6.236374609375000000e+04
-6.236529296875000000e+04
-6.236696875000000000e+04
-6.236450000000000000e+04
-6.237169140625000000e+04
-6.236796875000000000e+04
-6.236639453125000000e+04
-6.244164453125000000e+04
-6.238475390625000000e+04
-6.236986328125000000e+04
-6.235689453125000000e+04
-6.234680468750000000e+04
-6.234830859375000000e+04
-6.235702734375000000e+04
-6.233766406250000000e+04
-6.234730859375000000e+04
-6.234935156250000000e+04
-6.234662890625000000e+04
-6.234762890625000000e+04
-6.234961718750000000e+04
-6.234820312500000000e+04
-6.234900390625000000e+04
-6.234153125000000000e+04
-6.234165234375000000e+04
-6.244164453125000000e+04
-6.239401171875000000e+04
-6.236304687500000000e+04
-6.235569921875000000e+04
-6.234732812500000000e+04
-6.235040234375000000e+04
-6.235560937500000000e+04
-6.235101953125000000e+04
-6.234530468750000000e+04
-6.234699218750000000e+04
-6.235196484375000000e+04
-6.234779296875000000e+04
-6.234390625000000000e+04
-6.234319140625000000e+04
-6.234414453125000000e+04
-6.234503515625000000e+04
-6.234030078125000000e+04
-6.233482812500000000e+04
-6.240203906250000000e+04
-6.239754296875000000e+04
-6.238116796875000000e+04
-6.237480859375000000e+04
-6.237548046875000000e+04
-6.237592187500000000e+04
-6.237642968750000000e+04
-6.237389062500000000e+04
-6.237586328125000000e+04
-6.237719531250000000e+04
-6.237257812500000000e+04
-6.237375781250000000e+04
-6.237228906250000000e+04
-6.236872656250000000e+04
-6.236907031250000000e+04
-6.237237109375000000e+04
-6.237189062500000000e+04
-6.237621093750000000e+04
-6.237446875000000000e+04
-6.237505468750000000e+04
-6.236727734375000000e+04
-6.237478906250000000e+04
-6.237196093750000000e+04
-6.237341015625000000e+04
-6.237629296875000000e+04
-6.237878125000000000e+04
-6.237458984375000000e+04
-6.237158203125000000e+04
-6.236764843750000000e+04
-6.236809765625000000e+04
-6.237128515625000000e+04
-6.237283593750000000e+04
-6.244222656250000000e+04
-6.238885546875000000e+04
-6.237023046875000000e+04
-6.237765234375000000e+04
-6.237807421875000000e+04
-6.237121484375000000e+04
-6.237464843750000000e+04
-6.237254296875000000e+04
-6.236877343750000000e+04
-6.237114062500000000e+04
-6.237532421875000000e+04
-6.237664062500000000e+04
-6.237315625000000000e+04
-6.237373828125000000e+04
-6.237447656250000000e+04
-6.237352734375000000e+04
-6.237798437500000000e+04
-6.237573437500000000e+04
-6.237433593750000000e+04
-6.237255078125000000e+04
-6.237381640625000000e+04
-6.237521484375000000e+04
-6.237300000000000000e+04
-6.244222656250000000e+04
-6.240689453125000000e+04
-6.238466015625000000e+04
-6.235932421875000000e+04
-6.235943359375000000e+04
-6.236132812500000000e+04
-6.236665234375000000e+04
-6.236514062500000000e+04
-6.236425781250000000e+04
-6.235812890625000000e+04
-6.236162109375000000e+04
-6.235866796875000000e+04
-6.235825781250000000e+04
-6.235976562500000000e+04
-6.236361328125000000e+04
-6.236605078125000000e+04
-6.236377343750000000e+04
-6.236181640625000000e+04
-6.235784765625000000e+04
-6.236184375000000000e+04
-6.235987109375000000e+04
-6.236235937500000000e+04
-6.236194921875000000e+04
-6.236087500000000000e+04
-6.235899218750000000e+04
-6.244222656250000000e+04
-6.240437890625000000e+04
-6.240082812500000000e+04
-6.239216015625000000e+04
-6.236365234375000000e+04
-6.236099609375000000e+04
-6.236058593750000000e+04
-6.236394921875000000e+04
-6.236678906250000000e+04
-6.236383984375000000e+04
-6.236038671875000000e+04
-6.236058984375000000e+04
-6.236714453125000000e+04
-6.236304687500000000e+04
-6.236334765625000000e+04
-6.235529296875000000e+04
-6.235619531250000000e+04
-6.236246093750000000e+04
-6.236069140625000000e+04
-6.236303515625000000e+04
-6.235646093750000000e+04
-6.235256250000000000e+04
-6.235963671875000000e+04
-6.235398828125000000e+04
-6.235883203125000000e+04
-6.235590625000000000e+04
-6.235614062500000000e+04
-6.235798046875000000e+04
-6.244222656250000000e+04
-6.235313281250000000e+04
-6.234494140625000000e+04
-6.234732812500000000e+04
-6.234331250000000000e+04
-6.234894921875000000e+04
-6.234560156250000000e+04
-6.234660937500000000e+04
-6.234361718750000000e+04
-6.234401171875000000e+04
-6.234201562500000000e+04
-6.234161328125000000e+04
-6.234036718750000000e+04
-6.233707812500000000e+04
-6.244222656250000000e+04
-6.240181250000000000e+04
-6.238037500000000000e+04
-6.236739843750000000e+04
-6.236139062500000000e+04
-6.234690234375000000e+04
-6.234923046875000000e+04
-6.234574218750000000e+04
-6.233994531250000000e+04
-6.234166406250000000e+04
-6.234203125000000000e+04
-6.233987890625000000e+04
-6.233860937500000000e+04
-6.234076562500000000e+04
-6.233856250000000000e+04
-6.233840234375000000e+04
-6.233814453125000000e+04
-6.233673828125000000e+04
-6.234131640625000000e+04
-6.233939453125000000e+04
-6.233875000000000000e+04
-6.233391406250000000e+04
-6.240953906250000000e+04
-6.240407031250000000e+04
-6.240020703125000000e+04
-6.238000000000000000e+04
-6.238052343750000000e+04
-6.237588671875000000e+04
-6.237721875000000000e+04
-6.237154687500000000e+04
-6.236884375000000000e+04
-6.236891406250000000e+04
-6.237124218750000000e+04
-6.237126562500000000e+04
-6.237204296875000000e+04
-6.237048828125000000e+04
-6.236468750000000000e+04
-6.236510937500000000e+04
-6.236662109375000000e+04
-6.236881640625000000e+04
-6.237457812500000000e+04
-6.237725781250000000e+04
-6.237837109375000000e+04
-6.237760546875000000e+04
-6.237052343750000000e+04
-6.237067968750000000e+04
-6.237374218750000000e+04
-6.237763281250000000e+04
-6.237431640625000000e+04
-6.237185156250000000e+04
-6.236440625000000000e+04
-6.236944531250000000e+04
-6.244375000000000000e+04
-6.241000390625000000e+04
-6.239290234375000000e+04
-6.237943359375000000e+04
-6.238040234375000000e+04
-6.237778906250000000e+04
-6.238053906250000000e+04
-6.237415625000000000e+04
-6.237132812500000000e+04
-6.237192187500000000e+04
-6.237424609375000000e+04
-6.237333984375000000e+04
-6.237788281250000000e+04
-6.237582812500000000e+04
-6.237649218750000000e+04
-6.236795312500000000e+04
-6.236814062500000000e+04
-6.236752343750000000e+04
-6.237178906250000000e+04
-6.237605859375000000e+04
-6.237450781250000000e+04
-6.236875781250000000e+04
-6.237076953125000000e+04
-6.236662500000000000e+04
-6.237231640625000000e+04
-6.244375000000000000e+04
-6.238269531250000000e+04
-6.236461328125000000e+04
-6.236677343750000000e+04
-6.236647656250000000e+04
-6.236330078125000000e+04
-6.236224609375000000e+04
-6.236603125000000000e+04
-6.236171093750000000e+04
-6.235962500000000000e+04
-6.235958593750000000e+04
-6.236253515625000000e+04
-6.235958984375000000e+04
-6.236171875000000000e+04
-6.235809375000000000e+04
-6.235836328125000000e+04
-6.236566015625000000e+04
-6.236258984375000000e+04
-6.235766015625000000e+04
-6.235915234375000000e+04
-6.235739843750000000e+04
-6.235631250000000000e+04
-6.235721875000000000e+04
-6.240593359375000000e+04
-6.237978125000000000e+04
-6.236271875000000000e+04
-6.236521875000000000e+04
-6.236336718750000000e+04
-6.235778906250000000e+04
-6.235727734375000000e+04
-6.236819531250000000e+04
-6.236155078125000000e+04
-6.235520312500000000e+04
-6.236005078125000000e+04
-6.236408593750000000e+04
-6.236023437500000000e+04
-6.235665234375000000e+04
-6.235348437500000000e+04
-6.235862890625000000e+04
-6.235412109375000000e+04
-6.235506250000000000e+04
-6.236092968750000000e+04
-6.236460156250000000e+04
-6.236501562500000000e+04
-6.236219921875000000e+04
-6.235649218750000000e+04
-6.235631640625000000e+04
-6.235691796875000000e+04
-6.239337500000000000e+04
-6.236471093750000000e+04
-6.234980859375000000e+04
-6.234049609375000000e+04
-6.234479687500000000e+04
-6.234097656250000000e+04
-6.233979687500000000e+04
-6.234056250000000000e+04
-6.234501562500000000e+04
-6.233810937500000000e+04
-6.233641796875000000e+04
-6.233359765625000000e+04
-6.233597656250000000e+04
-6.244375000000000000e+04
-6.240117968750000000e+04
-6.237882812500000000e+04
-6.237137109375000000e+04
-6.235339843750000000e+04
-6.235022265625000000e+04
-6.235033984375000000e+04
-6.235277734375000000e+04
-6.235036718750000000e+04
-6.234825390625000000e+04
-6.234698437500000000e+04
-6.234161718750000000e+04
-6.234061328125000000e+04
-6.233128515625000000e+04
-6.233551953125000000e+04
-6.244065234375000000e+04
-6.240651953125000000e+04
-6.240552734375000000e+04
-6.239821093750000000e+04
-6.237933593750000000e+04
-6.237653906250000000e+04
-6.237286328125000000e+04
-6.237210546875000000e+04
-6.237973046875000000e+04
-6.237644921875000000e+04
-6.237435937500000000e+04
-6.237119531250000000e+04
-6.236674609375000000e+04
-6.236910546875000000e+04
-6.237238281250000000e+04
-6.237314062500000000e+04
-6.237546093750000000e+04
-6.237574609375000000e+04
-6.237236718750000000e+04
-6.237340234375000000e+04
-6.237482421875000000e+04
-6.237576562500000000e+04
-6.236635546875000000e+04
-6.237882421875000000e+04
-6.237622656250000000e+04
-6.237570703125000000e+04
-6.237207812500000000e+04
-6.237308593750000000e+04
-6.236826171875000000e+04
-6.244065234375000000e+04
-6.240099218750000000e+04
-6.239980078125000000e+04
-6.239062890625000000e+04
-6.238226953125000000e+04
-6.237726953125000000e+04
-6.237634375000000000e+04
-6.238428515625000000e+04
-6.237542187500000000e+04
-6.237478125000000000e+04
-6.237337500000000000e+04
-6.237555078125000000e+04
-6.237559765625000000e+04
-6.237012890625000000e+04
-6.237345703125000000e+04
-6.237912890625000000e+04
-6.237474218750000000e+04
-6.236840234375000000e+04
-6.236825781250000000e+04
-6.237238281250000000e+04
-6.237256250000000000e+04
-6.236512109375000000e+04
-6.236835546875000000e+04
-6.237391015625000000e+04
-6.237155859375000000e+04
-6.237065625000000000e+04
-6.236486328125000000e+04
-6.237123437500000000e+04
-6.237177734375000000e+04
-6.240393359375000000e+04
-6.240095312500000000e+04
-6.239153515625000000e+04
-6.237245703125000000e+04
-6.236358984375000000e+04
-6.236135546875000000e+04
-6.235944140625000000e+04
-6.236260546875000000e+04
-6.236105468750000000e+04
-6.235696484375000000e+04
-6.236003125000000000e+04
-6.236054687500000000e+04
-6.235961718750000000e+04
-6.235928125000000000e+04
-6.235941796875000000e+04
-6.235630468750000000e+04
-6.235521875000000000e+04
-6.235326953125000000e+04
-6.235955859375000000e+04
-6.235872265625000000e+04
-6.235670703125000000e+04
-6.235454296875000000e+04
-6.235225000000000000e+04
-6.234982812500000000e+04
-6.240496093750000000e+04
-6.239959765625000000e+04
-6.238026562500000000e+04
-6.236386718750000000e+04
-6.235753125000000000e+04
-6.235720312500000000e+04
-6.235683984375000000e+04
-6.235953515625000000e+04
-6.235535937500000000e+04
-6.235610156250000000e+04
-6.235907421875000000e+04
-6.235457031250000000e+04
-6.236457031250000000e+04
-6.236096875000000000e+04
-6.235558593750000000e+04
-6.235632031250000000e+04
-6.236521875000000000e+04
-6.236139843750000000e+04
-6.235833593750000000e+04
-6.236139453125000000e+04
-6.235864453125000000e+04
-6.236084765625000000e+04
-6.236397656250000000e+04
-6.236175781250000000e+04
-6.236270703125000000e+04
-6.236350781250000000e+04
-6.244065234375000000e+04
-6.240265234375000000e+04
-6.239526171875000000e+04
-6.235362890625000000e+04
-6.234371093750000000e+04
-6.234382812500000000e+04
-6.234721875000000000e+04
-6.234907421875000000e+04
-6.234325781250000000e+04
-6.234156250000000000e+04
-6.234271484375000000e+04
-6.233427343750000000e+04
-6.233630078125000000e+04
-6.233290234375000000e+04
-6.233760546875000000e+04
-6.234109375000000000e+04
-6.233378515625000000e+04
-6.233736718750000000e+04
-6.233243750000000000e+04
-6.239545312500000000e+04
-6.234293750000000000e+04
-6.234918750000000000e+04
-6.235073437500000000e+04
-6.234982421875000000e+04
-6.234601562500000000e+04
-6.234886718750000000e+04
-6.235298046875000000e+04
-6.234977343750000000e+04
-6.234300000000000000e+04
-6.234405078125000000e+04
-6.233839453125000000e+04
-6.233639062500000000e+04
-6.234078515625000000e+04
-6.234567187500000000e+04
-6.234653906250000000e+04
-6.233733203125000000e+04
-6.233421093750000000e+04
-6.240973046875000000e+04
-6.240598046875000000e+04
-6.239834375000000000e+04
-6.239149218750000000e+04
-6.237387890625000000e+04
-6.237169921875000000e+04
-6.237119531250000000e+04
-6.236814453125000000e+04
-6.237264062500000000e+04
-6.237503125000000000e+04
-6.237217578125000000e+04
-6.237195312500000000e+04
-6.237668750000000000e+04
-6.237657031250000000e+04
-6.237508984375000000e+04
-6.237132812500000000e+04
-6.237232031250000000e+04
-6.237619140625000000e+04
-6.237535937500000000e+04
-6.237289062500000000e+04
-6.237730078125000000e+04
-6.237756250000000000e+04
-6.237550000000000000e+04
-6.237415234375000000e+04
-6.237317968750000000e+04
-6.237003515625000000e+04
-6.236982421875000000e+04
-6.244273046875000000e+04
-6.239016015625000000e+04
-6.237641015625000000e+04
-6.237389062500000000e+04
-6.237349609375000000e+04
-6.237383593750000000e+04
-6.237405859375000000e+04
-6.236689843750000000e+04
-6.237048437500000000e+04
-6.237153515625000000e+04
-6.237188281250000000e+04
-6.237105468750000000e+04
-6.237241796875000000e+04
-6.237350000000000000e+04
-6.237274218750000000e+04
-6.236818359375000000e+04
-6.236877734375000000e+04
-6.237480468750000000e+04
-6.237069140625000000e+04
-6.237635546875000000e+04
-6.237349218750000000e+04
-6.236953906250000000e+04
-6.236914843750000000e+04
-6.236597265625000000e+04
-6.236516796875000000e+04
-6.244273046875000000e+04
-6.236987890625000000e+04
-6.236303515625000000e+04
-6.236226562500000000e+04
-6.236182031250000000e+04
-6.235901953125000000e+04
-6.236093750000000000e+04
-6.236317578125000000e+04
-6.236035156250000000e+04
-6.236200390625000000e+04
-6.235961718750000000e+04
-6.236088281250000000e+04
-6.235849609375000000e+04
-6.235761718750000000e+04
-6.236337109375000000e+04
-6.236341796875000000e+04
-6.235950000000000000e+04
-6.235598828125000000e+04
-6.236225781250000000e+04
-6.236512500000000000e+04
-6.236351171875000000e+04
-6.236494921875000000e+04
-6.235939843750000000e+04
-6.235221093750000000e+04
-6.234635546875000000e+04
-6.235227343750000000e+04
-6.235716406250000000e+04
-6.235285937500000000e+04
-6.244273046875000000e+04
-6.239796875000000000e+04
-6.237803515625000000e+04
-6.237067187500000000e+04
-6.236737109375000000e+04
-6.236068750000000000e+04
-6.236423437500000000e+04
-6.236314062500000000e+04
-6.235898437500000000e+04
-6.236099609375000000e+04
-6.236179296875000000e+04
-6.235783984375000000e+04
-6.235417187500000000e+04
-6.235820312500000000e+04
-6.235889062500000000e+04
-6.235553125000000000e+04
-6.235573828125000000e+04
-6.235501562500000000e+04
-6.234950390625000000e+04
-6.234988281250000000e+04
-6.235281640625000000e+04
-6.235443750000000000e+04
-6.235938671875000000e+04
-6.235911718750000000e+04
-6.235828515625000000e+04
-6.236285156250000000e+04
-6.244273046875000000e+04
-6.239530859375000000e+04
-6.238619140625000000e+04
-6.237669531250000000e+04
-6.234655859375000000e+04
-6.235350781250000000e+04
-6.235030859375000000e+04
-6.235230468750000000e+04
-6.234021484375000000e+04
-6.234236718750000000e+04
-6.234075000000000000e+04
-6.234807031250000000e+04
-6.234770703125000000e+04
-6.233871093750000000e+04
-6.234155468750000000e+04
-6.234763671875000000e+04
-6.233902343750000000e+04
-6.239748046875000000e+04
-6.237927343750000000e+04
-6.235132421875000000e+04
-6.234798828125000000e+04
-6.234193750000000000e+04
-6.234594921875000000e+04
-6.233917187500000000e+04
-6.235023437500000000e+04
-6.234634375000000000e+04
-6.234481250000000000e+04
-6.234504296875000000e+04
-6.234582812500000000e+04
-6.234969921875000000e+04
-6.234894921875000000e+04
-6.234244140625000000e+04
-6.234096484375000000e+04
-6.234557812500000000e+04
-6.234488671875000000e+04
-6.234645312500000000e+04
-6.239717187500000000e+04
-6.238981250000000000e+04
-6.238003515625000000e+04
-6.237443750000000000e+04
-6.237486328125000000e+04
-6.237572265625000000e+04
-6.237428515625000000e+04
-6.237924609375000000e+04
-6.237921484375000000e+04
-6.238044531250000000e+04
-6.237459375000000000e+04
-6.237054296875000000e+04
-6.237555078125000000e+04
-6.237273046875000000e+04
-6.237129687500000000e+04
-6.237525781250000000e+04
-6.237048437500000000e+04
-6.236967578125000000e+04
-6.237282031250000000e+04
-6.236877343750000000e+04
-6.237064062500000000e+04
-6.236932812500000000e+04
-6.237133984375000000e+04
-6.236950000000000000e+04
-6.236867578125000000e+04
-6.236585156250000000e+04
-6.244137500000000000e+04
-6.237897656250000000e+04
-6.237590234375000000e+04
-6.237767968750000000e+04
-6.237846484375000000e+04
-6.237853125000000000e+04
-6.237414062500000000e+04
-6.237389062500000000e+04
-6.236995703125000000e+04
-6.237151562500000000e+04
-6.237778125000000000e+04
-6.237539843750000000e+04
-6.237452343750000000e+04
-6.237163281250000000e+04
-6.236905468750000000e+04
-6.237575390625000000e+04
-6.237400000000000000e+04
-6.237271484375000000e+04
-6.236851953125000000e+04
-6.236808984375000000e+04
-6.237245703125000000e+04
-6.237226953125000000e+04
-6.237143359375000000e+04
-6.236933203125000000e+04
-6.237196093750000000e+04
-6.237395703125000000e+04
-6.237620703125000000e+04
-6.237184375000000000e+04
-6.244137500000000000e+04
-6.237845312500000000e+04
-6.237119531250000000e+04
-6.236197265625000000e+04
-6.236285937500000000e+04
-6.235982421875000000e+04
-6.235832421875000000e+04
-6.235896484375000000e+04
-6.236325781250000000e+04
-6.236101953125000000e+04
-6.236263281250000000e+04
-6.236357421875000000e+04
-6.236248046875000000e+04
-6.236458593750000000e+04
-6.236171484375000000e+04
-6.236125390625000000e+04
-6.235941796875000000e+04
-6.236169531250000000e+04
-6.236082812500000000e+04
-6.236389453125000000e+04
-6.236489843750000000e+04
-6.236229296875000000e+04
-6.235432031250000000e+04
-6.235685546875000000e+04
-6.235474609375000000e+04
-6.235000000000000000e+04
-6.244137500000000000e+04
-6.239823828125000000e+04
-6.239287890625000000e+04
-6.238173046875000000e+04
-6.237597265625000000e+04
-6.236876562500000000e+04
-6.236474609375000000e+04
-6.236638281250000000e+04
-6.236540625000000000e+04
-6.236336328125000000e+04
-6.236139453125000000e+04
-6.236021484375000000e+04
-6.235998828125000000e+04
-6.236122656250000000e+04
-6.236341015625000000e+04
-6.236163671875000000e+04
-6.236230078125000000e+04
-6.235652734375000000e+04
-6.235667187500000000e+04
-6.235394531250000000e+04
-6.235402734375000000e+04
-6.235934765625000000e+04
-6.236167578125000000e+04
-6.236043359375000000e+04
-6.236007812500000000e+04
-6.235850390625000000e+04
-6.235832031250000000e+04
-6.235929687500000000e+04
-6.235161328125000000e+04
-6.234699609375000000e+04
-6.234419531250000000e+04
-6.234588671875000000e+04
-6.234435937500000000e+04
-6.234706640625000000e+04
-6.234635156250000000e+04
-6.235170312500000000e+04
-6.235242578125000000e+04
-6.234671093750000000e+04
-6.234271484375000000e+04
-6.234547656250000000e+04
-6.234716015625000000e+04
-6.234748437500000000e+04
-6.234069921875000000e+04
-6.234228906250000000e+04
-6.234805468750000000e+04
-6.234623828125000000e+04
-6.233810156250000000e+04
-6.244137500000000000e+04
-6.239547265625000000e+04
-6.237604296875000000e+04
-6.236625390625000000e+04
-6.234478125000000000e+04
-6.234734765625000000e+04
-6.234035937500000000e+04
-6.234327734375000000e+04
-6.234366406250000000e+04
-6.234335937500000000e+04
-6.233924609375000000e+04
-6.233925000000000000e+04
-6.244227734375000000e+04
-6.240400000000000000e+04
-6.239721484375000000e+04
-6.238037500000000000e+04
-6.238180468750000000e+04
-6.237798828125000000e+04
-6.238207421875000000e+04
-6.237646484375000000e+04
-6.237058593750000000e+04
-6.237348437500000000e+04
-6.237573828125000000e+04
-6.237341406250000000e+04
-6.237103515625000000e+04
-6.237318750000000000e+04
-6.237107421875000000e+04
-6.237978906250000000e+04
-6.237521484375000000e+04
-6.237546875000000000e+04
-6.237736718750000000e+04
-6.237559765625000000e+04
-6.237664843750000000e+04
-6.237267578125000000e+04
-6.237058203125000000e+04
-6.237539062500000000e+04
-6.237417578125000000e+04
-6.244227734375000000e+04
-6.240517968750000000e+04
-6.238203906250000000e+04
-6.237653906250000000e+04
-6.238025000000000000e+04
-6.237561328125000000e+04
-6.237821484375000000e+04
-6.237680859375000000e+04
-6.237580468750000000e+04
-6.237286718750000000e+04
-6.237908984375000000e+04
-6.237824609375000000e+04
-6.237620312500000000e+04
-6.237556250000000000e+04
-6.237639062500000000e+04
-6.237588281250000000e+04
-6.237418359375000000e+04
-6.240523828125000000e+04
-6.240093750000000000e+04
-6.239025000000000000e+04
-6.236409375000000000e+04
-6.235801953125000000e+04
-6.236111328125000000e+04
-6.236172265625000000e+04
-6.236519531250000000e+04
-6.236043359375000000e+04
-6.235572656250000000e+04
-6.235266796875000000e+04
-6.235462500000000000e+04
-6.235767578125000000e+04
-6.236151953125000000e+04
-6.236189843750000000e+04
-6.236116015625000000e+04
-6.235339843750000000e+04
-6.235835546875000000e+04
-6.235523046875000000e+04
-6.235629296875000000e+04
-6.244227734375000000e+04