-1.406872272491455078e+01 5.716912269592285156e+00 -1.023477077484130859e+01 5.716912269592285156e+00 -1.524170589447021484e+01 -6.764607906341552734e+00 -1.023477077484130859e+01 -6.764607906341552734e+00 -3.382034683227539062e+01
-4.822544097900390625e+01 1.180620670318603516e+01 -1.530583500862121582e+00 1.180620670318603516e+01 -4.518415451049804688e+01 -1.020975589752197266e+01 -1.530583500862121582e+00 -1.020975589752197266e+01 -7.761493682861328125e+00
-2.908964347839355469e+01 7.415102958679199219e+00 -3.056661128997802734e+00 7.415102958679199219e+00 -1.837940025329589844e+01 2.229050397872924805e+00 -3.056661128997802734e+00 2.229050397872924805e+00 2.955608844757080078e+00
-2.811172866821289062e+01 5.985646247863769531e+00 -2.192301034927368164e+00 5.985646247863769531e+00 -2.717503547668457031e+01 -1.438218116760253906e+01 -2.192301034927368164e+00 -1.438218116760253906e+01 4.709443449974060059e-01
-3.747594070434570312e+01 4.147290229797363281e+00 1.881650567054748535e+00 4.147290229797363281e+00 -5.777244949340820312e+01 -1.376912832260131836e+00 1.881650567054748535e+00 -1.376912832260131836e+00 -3.256473922729492188e+01
-2.355268287658691406e+01 5.580111026763916016e+00 -1.943384289741516113e+00 5.580111026763916016e+00 -2.625906753540039062e+01 -9.881266593933105469e+00 -1.943384289741516113e+00 -9.881266593933105469e+00 -3.612999725341796875e+01
-3.349057006835937500e+01 -1.308811426162719727e+00 1.566346049308776855e+00 -1.308811426162719727e+00 -4.664854812622070312e+01 2.759045124053955078e+00 1.566346049308776855e+00 2.759045124053955078e+00 -4.958824157714843750e+01
-6.132905578613281250e+01 -8.987219333648681641e-01 5.155729293823242188e+00 -8.987219333648681641e-01 -4.597724151611328125e+01 1.498631858825683594e+01 5.155729293823242188e+00 1.498631858825683594e+01 -1.316574192047119141e+01
-5.206555175781250000e+01 6.806626915931701660e-01 -3.206957578659057617e+00 6.806626915931701660e-01 -4.682494735717773438e+01 3.727021217346191406e+00 -3.206957578659057617e+00 3.727021217346191406e+00 -2.176973152160644531e+01
-4.290913009643554688e+01 4.340386390686035156e+00 1.626069641113281250e+01 4.340386390686035156e+00 -2.396095657348632812e+01 -1.218363523483276367e+00 1.626069641113281250e+01 -1.218363523483276367e+00 -1.269753074645996094e+01
-2.944700622558593750e+01 -5.379367351531982422e+00 -9.781550168991088867e-01 -5.379367351531982422e+00 8.596999645233154297e-01 5.600381851196289062e+00 -9.781550168991088867e-01 5.600381851196289062e+00 -2.257089805603027344e+01
-5.071364212036132812e+01 -1.901663303375244141e+00 -6.592990875244140625e+00 -1.901663303375244141e+00 -3.794230270385742188e+01 9.383728981018066406e+00 -6.592990875244140625e+00 9.383728981018066406e+00 -4.478099060058593750e+01
-4.414082717895507812e+01 -2.667140579223632812e+01 -3.454668998718261719e+00 -2.667140579223632812e+01 -3.049297714233398438e+01 -9.075515747070312500e+00 -3.454668998718261719e+00 -9.075515747070312500e+00 -3.137862205505371094e+01
-5.508897781372070312e+01 -3.066084289550781250e+01 -1.624855041503906250e+01 -3.066084289550781250e+01 -2.283410263061523438e+01 4.851677894592285156e+00 -1.624855041503906250e+01 4.851677894592285156e+00 -9.224311113357543945e-01
-3.578832244873046875e+01 -2.017237663269042969e+01 -9.293222427368164062e+00 -2.017237663269042969e+01 -3.233375167846679688e+01 6.813648700714111328e+00 -9.293222427368164062e+00 6.813648700714111328e+00 -4.953731536865234375e+01
-4.092826080322265625e+01 -2.665639114379882812e+01 7.768272399902343750e+00 -2.665639114379882812e+01 -1.561159515380859375e+01 -2.273909091949462891e+00 7.768272399902343750e+00 -2.273909091949462891e+00 -4.525708389282226562e+01
-3.714453125000000000e+01 5.955325126647949219e+00 1.084014415740966797e+01 5.955325126647949219e+00 -1.999976539611816406e+01 6.878806591033935547e+00 1.084014415740966797e+01 6.878806591033935547e+00 -1.435974979400634766e+01
-4.452205657958984375e+01 5.795246601104736328e+00 -1.533528041839599609e+01 5.795246601104736328e+00 -6.358031845092773438e+01 -1.303073048591613770e+00 -1.533528041839599609e+01 -1.303073048591613770e+00 -4.972361373901367188e+01
-3.318228912353515625e+01 5.038376808166503906e+00 -2.117652148008346558e-01 5.038376808166503906e+00 -1.444323730468750000e+01 -5.649818181991577148e-01 -2.117652148008346558e-01 -5.649818181991577148e-01 1.561653375625610352e+00
-3.688751220703125000e+01 -1.229662418365478516e+01 -1.044599914550781250e+01 -1.229662418365478516e+01 -2.619935798645019531e+01 -1.740004777908325195e+00 -1.044599914550781250e+01 -1.740004777908325195e+00 5.571098923683166504e-01
-5.154814243316650391e+00 5.650732040405273438e+00 1.228203105926513672e+01 5.650732040405273438e+00 -3.367346954345703125e+01 -9.768781661987304688e+00 1.228203105926513672e+01 -9.768781661987304688e+00 -1.397950530052185059e+00
-3.357640457153320312e+01 1.282978630065917969e+01 7.070592880249023438e+00 1.282978630065917969e+01 -1.360751533508300781e+01 8.541417121887207031e+00 7.070592880249023438e+00 8.541417121887207031e+00 -3.774908447265625000e+01
-4.843636703491210938e+01 1.423877620697021484e+01 -2.230849266052246094e+01 1.423877620697021484e+01 -3.538118362426757812e+01 -5.807446837425231934e-01 -2.230849266052246094e+01 -5.807446837425231934e-01 -3.925654602050781250e+01
-6.931989288330078125e+01 1.028753948211669922e+01 1.328560471534729004e+00 1.028753948211669922e+01 -2.702269172668457031e+01 6.272955894470214844e+00 1.328560471534729004e+00 6.272955894470214844e+00 -4.454792022705078125e+01
-2.474536514282226562e+01 4.567015647888183594e+00 -1.978671646118164062e+01 4.567015647888183594e+00 -1.682444381713867188e+01 1.530422329902648926e+00 -1.978671646118164062e+01 1.530422329902648926e+00 -1.097820663452148438e+01
-4.150376129150390625e+01 -3.856816053390502930e+00 -5.555028438568115234e+00 -3.856816053390502930e+00 1.006879615783691406e+01 -1.728456497192382812e+01 -5.555028438568115234e+00 -1.728456497192382812e+01 -3.109972572326660156e+01
1.230575323104858398e+00 1.470535278320312500e+01 -8.969227790832519531e+00 1.470535278320312500e+01 -7.591724395751953125e+01 -9.322283744812011719e+00 -8.969227790832519531e+00 -9.322283744812011719e+00 -6.067136764526367188e+01
-2.326822853088378906e+01 1.635635185241699219e+01 -2.516761541366577148e+00 1.635635185241699219e+01 -3.894483184814453125e+01 -7.928862094879150391e+00 -2.516761541366577148e+00 -7.928862094879150391e+00 -4.340307998657226562e+01
-3.366669464111328125e+01 6.238885879516601562e+00 -2.308099985122680664e+00 6.238885879516601562e+00 -4.030778408050537109e+00 -1.601999664306640625e+01 -2.308099985122680664e+00 -1.601999664306640625e+01 1.993420362472534180e+00
-2.258837509155273438e+01 -2.676229715347290039e+00 8.738016128540039062e+00 -2.676229715347290039e+00 -8.567398834228515625e+01 1.959307938814163208e-01 8.738016128540039062e+00 1.959307938814163208e-01 -4.626552200317382812e+01
-6.641530609130859375e+01 7.563264846801757812e+00 1.356338596343994141e+01 7.563264846801757812e+00 -1.676865959167480469e+01 -1.159171342849731445e+00 1.356338596343994141e+01 -1.159171342849731445e+00 -5.622570037841796875e+01
-1.186308765411376953e+01 1.943598175048828125e+01 6.776879787445068359e+00 1.943598175048828125e+01 -4.677209091186523438e+01 -4.306998729705810547e+00 6.776879787445068359e+00 -4.306998729705810547e+00 -3.078038787841796875e+01
-4.467882537841796875e+01 1.333115547895431519e-01 1.361872673034667969e+01 1.333115547895431519e-01 -2.949604225158691406e+01 1.088647270202636719e+01 1.361872673034667969e+01 1.088647270202636719e+01 -7.927749633789062500e+00
-8.708792328834533691e-01 -9.209214210510253906e+00 7.898817062377929688e+00 -9.209214210510253906e+00 2.535119771957397461e+00 7.608875751495361328e+00 7.898817062377929688e+00 7.608875751495361328e+00 -9.970316886901855469e+00
-4.397621917724609375e+01 2.163002014160156250e+01 1.325242710113525391e+01 2.163002014160156250e+01 -4.344960784912109375e+01 -8.847890853881835938e+00 1.325242710113525391e+01 -8.847890853881835938e+00 -4.689250946044921875e+01
-4.234439468383789062e+01 6.486886024475097656e+00 -9.014841914176940918e-02 6.486886024475097656e+00 -3.417641830444335938e+01 1.172972440719604492e+00 -9.014841914176940918e-02 1.172972440719604492e+00 -2.791426277160644531e+01
-2.130828475952148438e+01 -1.243701076507568359e+01 1.386830711364746094e+01 -1.243701076507568359e+01 -3.154180145263671875e+01 -1.135670852661132812e+01 1.386830711364746094e+01 -1.135670852661132812e+01 -2.950477981567382812e+01
-9.963468551635742188e+00 2.287851870059967041e-01 1.131818103790283203e+01 2.287851870059967041e-01 -4.730753707885742188e+01 4.511714935302734375e+00 1.131818103790283203e+01 4.511714935302734375e+00 -3.312149429321289062e+01
8.689523696899414062e+00 -1.325303554534912109e+01 9.446507096290588379e-01 -1.325303554534912109e+01 -1.359304523468017578e+01 -2.094968795776367188e+01 9.446507096290588379e-01 -2.094968795776367188e+01 -2.046749496459960938e+01
-9.268253326416015625e+00 -8.907489776611328125e+00 1.349024009704589844e+01 -8.907489776611328125e+00 -1.215377616882324219e+01 -2.109886550903320312e+01 1.349024009704589844e+01 -2.109886550903320312e+01 -1.288527679443359375e+01
-6.193486404418945312e+01 -9.677278518676757812e+00 -6.375800609588623047e+00 -9.677278518676757812e+00 -6.254085159301757812e+01 -2.018878936767578125e+01 -6.375800609588623047e+00 -2.018878936767578125e+01 -3.562528610229492188e+01
-2.307668495178222656e+01 1.337438774108886719e+01 -2.004311323165893555e+00 1.337438774108886719e+01 -3.927536010742187500e+01 -7.530265331268310547e+00 -2.004311323165893555e+00 -7.530265331268310547e+00 -2.257262039184570312e+01
-6.197306823730468750e+01 7.033509016036987305e-02 1.563906860351562500e+01 7.033509016036987305e-02 -4.866446304321289062e+01 5.718045234680175781e+00 1.563906860351562500e+01 5.718045234680175781e+00 -5.566548919677734375e+01
-2.264449501037597656e+01 -1.055762887001037598e+00 -4.848007678985595703e+00 -1.055762887001037598e+00 -3.035255813598632812e+01 5.624241352081298828e+00 -4.848007678985595703e+00 5.624241352081298828e+00 -6.497996520996093750e+01
-9.657081604003906250e+00 -2.465603113174438477e+00 1.822413063049316406e+01 -2.465603113174438477e+00 -1.036013412475585938e+01 -1.227361869812011719e+01 1.822413063049316406e+01 -1.227361869812011719e+01 -3.614172363281250000e+01
-2.597197532653808594e+01 1.965534210205078125e+00 5.973728179931640625e+00 1.965534210205078125e+00 -4.677608108520507812e+01 9.490508079528808594e+00 5.973728179931640625e+00 9.490508079528808594e+00 -9.306588172912597656e+00
-6.033801269531250000e+01 1.687957644462585449e+00 -3.643079757690429688e+00 1.687957644462585449e+00 -7.015355682373046875e+01 -1.684605026245117188e+01 -3.643079757690429688e+00 -1.684605026245117188e+01 -5.285457992553710938e+01
-9.287621498107910156e+00 1.521677875518798828e+01 -2.117104148864746094e+01 1.521677875518798828e+01 -1.668540382385253906e+01 2.893677949905395508e+00 -2.117104148864746094e+01 2.893677949905395508e+00 -2.415518760681152344e+01
-5.149920654296875000e+01 -5.803986191749572754e-01 2.140298604965209961e+00 -5.803986191749572754e-01 -5.506543350219726562e+01 -3.440258502960205078e+00 2.140298604965209961e+00 -3.440258502960205078e+00 -4.404256057739257812e+01
-1.781178474426269531e+01 8.749097824096679688e+00 -1.294035434722900391e+01 8.749097824096679688e+00 -3.218540906906127930e+00 3.384053945541381836e+00 -1.294035434722900391e+01 3.384053945541381836e+00 -3.227079010009765625e+01
-8.758918762207031250e+00 1.058043479919433594e+01 -1.340027904510498047e+01 1.058043479919433594e+01 -1.932720375061035156e+01 -2.439295005798339844e+01 -1.340027904510498047e+01 -2.439295005798339844e+01 -4.572991561889648438e+01
-4.590866470336914062e+01 -5.283510208129882812e+00 -2.153287172317504883e+00 -5.283510208129882812e+00 -6.220699310302734375e+01 6.854436874389648438e+00 -2.153287172317504883e+00 6.854436874389648438e+00 -3.300868606567382812e+01
-4.942720031738281250e+01 -1.583797836303710938e+01 -3.338053894042968750e+01 -1.583797836303710938e+01 -6.328621292114257812e+01 -6.705663204193115234e+00 -3.338053894042968750e+01 -6.705663204193115234e+00 -1.246387386322021484e+01
-2.390856552124023438e+01 1.232636737823486328e+01 -1.208569431304931641e+01 1.232636737823486328e+01 -4.023676395416259766e+00 -3.867606878280639648e+00 -1.208569431304931641e+01 -3.867606878280639648e+00 -5.184674072265625000e+01
1.230575323104858398e+00 1.470535278320312500e+01 -8.969227790832519531e+00 1.470535278320312500e+01 -7.591724395751953125e+01 -9.322283744812011719e+00 -8.969227790832519531e+00 -9.322283744812011719e+00 -6.067136764526367188e+01
-4.244764328002929688e+00 -1.518266439437866211e+00 -1.796550559997558594e+01 -1.518266439437866211e+00 -7.210026264190673828e+00 -6.204524040222167969e+00 -1.796550559997558594e+01 -6.204524040222167969e+00 -3.421572875976562500e+01
-2.866089248657226562e+01 1.233356475830078125e+01 -1.277307987213134766e+00 1.233356475830078125e+01 -4.505312728881835938e+01 -4.239663600921630859e+00 -1.277307987213134766e+00 -4.239663600921630859e+00 -4.157545089721679688e+01
-5.349179840087890625e+01 -8.275774002075195312e+00 -1.083329868316650391e+01 -8.275774002075195312e+00 -5.192669677734375000e+01 -1.231625318527221680e+00 -1.083329868316650391e+01 -1.231625318527221680e+00 -3.427762222290039062e+01
-1.911680984497070312e+01 -3.039522552490234375e+01 -2.101956367492675781e+00 -3.039522552490234375e+01 -2.636447906494140625e+01 -8.239388465881347656e+00 -2.101956367492675781e+00 -8.239388465881347656e+00 -3.781499341130256653e-02
-1.799041366577148438e+01 -6.863897800445556641e+00 1.908417510986328125e+01 -6.863897800445556641e+00 -6.052755355834960938e+00 1.249311733245849609e+01 1.908417510986328125e+01 1.249311733245849609e+01 -2.938336563110351562e+01
-1.625373649597167969e+01 9.584507942199707031e+00 1.643387079238891602e+00 9.584507942199707031e+00 -4.071831893920898438e+01 2.640623569488525391e+00 1.643387079238891602e+00 2.640623569488525391e+00 -1.534718322753906250e+01
-5.030381393432617188e+01 -2.201368808746337891e+00 7.443122863769531250e+00 -2.201368808746337891e+00 -5.265450286865234375e+01 -4.959148883819580078e+00 7.443122863769531250e+00 -4.959148883819580078e+00 -3.441669464111328125e+01
-3.344085693359375000e+01 3.300935029983520508e+00 -8.766295433044433594e+00 3.300935029983520508e+00 -3.961210250854492188e+01 -1.091946125030517578e+01 -8.766295433044433594e+00 -1.091946125030517578e+01 -8.012754058837890625e+01
-4.580891418457031250e+01 2.418227386474609375e+01 -6.767793178558349609e+00 2.418227386474609375e+01 -3.919212722778320312e+01 -2.239205360412597656e+00 -6.767793178558349609e+00 -2.239205360412597656e+00 -3.369202423095703125e+01
-3.959645080566406250e+01 6.896616935729980469e+00 -7.528859138488769531e+00 6.896616935729980469e+00 -8.544019699096679688e+00 -1.962301635742187500e+01 -7.528859138488769531e+00 -1.962301635742187500e+01 -3.709485244750976562e+01
-3.107237052917480469e+01 2.275351142883300781e+01 -5.803248882293701172e+00 2.275351142883300781e+01 -5.606673049926757812e+01 6.166940212249755859e+00 -5.803248882293701172e+00 6.166940212249755859e+00 -5.293584823608398438e+01
-2.083319473266601562e+01 1.544189071655273438e+01 -2.314995193481445312e+01 1.544189071655273438e+01 -3.158217239379882812e+01 -2.416983032226562500e+01 -2.314995193481445312e+01 -2.416983032226562500e+01 -2.424776458740234375e+01
-4.000148010253906250e+01 6.650764942169189453e-01 -1.391862630844116211e+00 6.650764942169189453e-01 -5.403079223632812500e+01 -7.171451091766357422e+00 -1.391862630844116211e+00 -7.171451091766357422e+00 -4.552888488769531250e+01
-8.679494476318359375e+01 -3.437518700957298279e-02 1.509631633758544922e+01 -3.437518700957298279e-02 -9.450853347778320312e+00 -7.273001074790954590e-01 1.509631633758544922e+01 -7.273001074790954590e-01 -5.865849304199218750e+01
-3.250834655761718750e+01 4.820621907711029053e-01 -1.646138191223144531e+00 4.820621907711029053e-01 -2.452253723144531250e+01 3.581094264984130859e+00 -1.646138191223144531e+00 3.581094264984130859e+00 -3.322382354736328125e+01
-4.950481796264648438e+01 3.130249381065368652e-01 -1.837344741821289062e+01 3.130249381065368652e-01 -5.953129959106445312e+01 -1.098432660102844238e+00 -1.837344741821289062e+01 -1.098432660102844238e+00 -2.768964767456054688e+01
-4.094346618652343750e+01 1.109797668457031250e+01 -4.111320018768310547e+00 1.109797668457031250e+01 -2.522378921508789062e+01 -1.033108043670654297e+01 -4.111320018768310547e+00 -1.033108043670654297e+01 -2.979547309875488281e+01
-2.289242362976074219e+01 -5.278478622436523438e+00 1.160750865936279297e+01 -5.278478622436523438e+00 -1.312551975250244141e+01 -1.309290027618408203e+01 1.160750865936279297e+01 -1.309290027618408203e+01 -2.350214767456054688e+01
-6.150267028808593750e+01 1.111796569824218750e+01 3.953814506530761719e+00 1.111796569824218750e+01 -6.783884429931640625e+01 1.832967758178710938e+01 3.953814506530761719e+00 1.832967758178710938e+01 -5.203522109985351562e+01
-1.762965011596679688e+01 1.347182750701904297e+01 -9.323933124542236328e-01 1.347182750701904297e+01 -4.983618927001953125e+01 -4.422862529754638672e+00 -9.323933124542236328e-01 -4.422862529754638672e+00 -4.950962448120117188e+01
-1.730988693237304688e+01 1.699238777160644531e+01 1.716268509626388550e-01 1.699238777160644531e+01 -5.899868011474609375e+01 -3.914153873920440674e-01 1.716268509626388550e-01 -3.914153873920440674e-01 -3.676990127563476562e+01
-1.871393394470214844e+01 1.091116237640380859e+01 -6.200778961181640625e+00 1.091116237640380859e+01 -1.418291187286376953e+01 -1.497676849365234375e+00 -6.200778961181640625e+00 -1.497676849365234375e+00 -2.625050354003906250e+01
-3.399725723266601562e+01 -8.169732093811035156e+00 3.804917335510253906e+00 -8.169732093811035156e+00 -4.796166992187500000e+01 -1.757686614990234375e+01 3.804917335510253906e+00 -1.757686614990234375e+01 -1.539871692657470703e+01
-4.151084518432617188e+01 1.421692371368408203e+00 -2.216840553283691406e+01 1.421692371368408203e+00 -2.385538101196289062e+01 -9.883641242980957031e+00 -2.216840553283691406e+01 -9.883641242980957031e+00 -3.991773986816406250e+01
-3.396365737915039062e+01 2.852355957031250000e+00 -1.180263996124267578e+00 2.852355957031250000e+00 -9.261846160888671875e+01 5.103384971618652344e+00 -1.180263996124267578e+00 5.103384971618652344e+00 -4.830470275878906250e+01
-3.356141662597656250e+01 6.315567970275878906e+00 2.390411949157714844e+01 6.315567970275878906e+00 -5.252588653564453125e+01 -3.742569446563720703e+00 2.390411949157714844e+01 -3.742569446563720703e+00 -3.227215957641601562e+01
1.230575323104858398e+00 1.470535278320312500e+01 -8.969227790832519531e+00 1.470535278320312500e+01 -7.591724395751953125e+01 -9.322283744812011719e+00 -8.969227790832519531e+00 -9.322283744812011719e+00 -6.067136764526367188e+01
-3.837302398681640625e+01 6.030184268951416016e+00 6.491866588592529297e+00 6.030184268951416016e+00 -3.190805053710937500e+01 -8.842204093933105469e+00 6.491866588592529297e+00 -8.842204093933105469e+00 -2.272480392456054688e+01
-3.746979904174804688e+01 -4.761118412017822266e+00 -4.570468902587890625e+00 -4.761118412017822266e+00 -2.607159423828125000e+01 -3.062866687774658203e+00 -4.570468902587890625e+00 -3.062866687774658203e+00 -2.266229248046875000e+01
-3.747904586791992188e+01 8.481514930725097656e+00 1.663846492767333984e+00 8.481514930725097656e+00 -7.070217132568359375e+01 -1.192219614982604980e+00 1.663846492767333984e+00 -1.192219614982604980e+00 -2.300666427612304688e+01
-4.725228500366210938e+01 -2.554604339599609375e+01 1.108305692672729492e+00 -2.554604339599609375e+01 -5.281634521484375000e+01 5.491035938262939453e+00 1.108305692672729492e+00 5.491035938262939453e+00 -4.918452453613281250e+01
-3.223332595825195312e+01 1.005506515502929688e+01 -5.764246940612792969e+00 1.005506515502929688e+01 -3.928888320922851562e+01 1.307050132751464844e+01 -5.764246940612792969e+00 1.307050132751464844e+01 -1.104016399383544922e+01
-6.842311859130859375e+00 3.639248013496398926e-01 -1.136493587493896484e+01 3.639248013496398926e-01 5.777893066406250000e+00 5.560085773468017578e+00 -1.136493587493896484e+01 5.560085773468017578e+00 -5.299307632446289062e+01
5.609700202941894531e+00 8.158443450927734375e+00 -1.126013565063476562e+01 8.158443450927734375e+00 -9.919570922851562500e+00 1.638731956481933594e+00 -1.126013565063476562e+01 1.638731956481933594e+00 -3.389688110351562500e+01
-7.837100982666015625e+01 4.428471565246582031e+00 -5.677426233887672424e-02 4.428471565246582031e+00 -4.108682250976562500e+01 5.087235450744628906e+00 -5.677426233887672424e-02 5.087235450744628906e+00 -6.433641052246093750e+01
-3.776994323730468750e+01 1.430216878652572632e-01 -1.208306121826171875e+01 1.430216878652572632e-01 -2.496368408203125000e+01 -1.155422401428222656e+01 -1.208306121826171875e+01 -1.155422401428222656e+01 -3.650469589233398438e+01
7.295018672943115234e+00 -2.413957786560058594e+01 -7.045110702514648438e+00 -2.413957786560058594e+01 -1.551747512817382812e+01 2.640837860107421875e+01 -7.045110702514648438e+00 2.640837860107421875e+01 -4.108025074005126953e+00
-6.476838684082031250e+01 5.498735904693603516e+00 -4.523402690887451172e+00 5.498735904693603516e+00 -4.392678833007812500e+01 1.082563018798828125e+01 -4.523402690887451172e+00 1.082563018798828125e+01 -4.467952346801757812e+01
-9.555970191955566406e+00 -3.425055027008056641e+00 7.255674153566360474e-02 -3.425055027008056641e+00 -7.648382568359375000e+01 -2.749460458755493164e+00 7.255674153566360474e-02 -2.749460458755493164e+00 -4.388537979125976562e+01
-2.213646507263183594e+01 1.087051773071289062e+01 -1.261702251434326172e+01 1.087051773071289062e+01 1.152005195617675781e+01 -2.757684707641601562e+00 -1.261702251434326172e+01 -2.757684707641601562e+00 -2.689994049072265625e+01
-4.000848388671875000e+01 -2.477345466613769531e+00 -8.352652549743652344e+00 -2.477345466613769531e+00 -4.216649627685546875e+01 -3.186021566390991211e+00 -8.352652549743652344e+00 -3.186021566390991211e+00 -4.789448547363281250e+01
-3.790624237060546875e+01 -4.097664356231689453e+00 3.966873645782470703e+00 -4.097664356231689453e+00 -2.052899742126464844e+01 -7.207460403442382812e+00 3.966873645782470703e+00 -7.207460403442382812e+00 -1.978282356262207031e+01
-1.982065320014953613e+00 -8.098202705383300781e+00 -4.107771873474121094e+00 -8.098202705383300781e+00 -1.363183307647705078e+01 -2.393390464782714844e+01 -4.107771873474121094e+00 -2.393390464782714844e+01 -4.589212417602539062e+00
-5.345499420166015625e+01 -1.698334121704101562e+01 -3.587515652179718018e-01 -1.698334121704101562e+01 -3.898837280273437500e+01 -1.256375908851623535e+00 -3.587515652179718018e-01 -1.256375908851623535e+00 -1.367734050750732422e+01
-6.395334243774414062e+01 9.192491173744201660e-01 -9.545007705688476562e+00 9.192491173744201660e-01 -7.196668243408203125e+01 -1.864248085021972656e+01 -9.545007705688476562e+00 -1.864248085021972656e+01 -4.511377716064453125e+01
-8.687447547912597656e+00 -4.663874626159667969e+00 -4.051500797271728516e+00 -4.663874626159667969e+00 -3.873226165771484375e+01 -6.829012393951416016e+00 -4.051500797271728516e+00 -6.829012393951416016e+00 -4.036740112304687500e+01
-6.892508506774902344e+00 -1.375843405723571777e+00 -1.527162075042724609e+01 -1.375843405723571777e+00 -3.492280197143554688e+01 9.803662300109863281e+00 -1.527162075042724609e+01 9.803662300109863281e+00 -1.867892265319824219e+01
-5.179751968383789062e+01 -8.410082817077636719e+00 1.279992675781250000e+01 -8.410082817077636719e+00 -7.045722198486328125e+01 -1.509447860717773438e+01 1.279992675781250000e+01 -1.509447860717773438e+01 -3.624595260620117188e+01
-1.730206680297851562e+01 -1.516627407073974609e+01 3.305315017700195312e+01 -1.516627407073974609e+01 -2.384140205383300781e+01 -2.685792541503906250e+01 3.305315017700195312e+01 -2.685792541503906250e+01 -4.842951202392578125e+01
-3.036868667602539062e+01 2.343717336654663086e+00 5.786786079406738281e+00 2.343717336654663086e+00 -4.216463088989257812e+01 1.775483131408691406e+01 5.786786079406738281e+00 1.775483131408691406e+01 -3.493564605712890625e+01
-2.593121719360351562e+01 -1.400822257995605469e+01 -6.809494495391845703e+00 -1.400822257995605469e+01 -1.639587783813476562e+01 4.257577419281005859e+00 -6.809494495391845703e+00 4.257577419281005859e+00 -4.110453414916992188e+01
1.230575323104858398e+00 1.470535278320312500e+01 -8.969227790832519531e+00 1.470535278320312500e+01 -7.591724395751953125e+01 -9.322283744812011719e+00 -8.969227790832519531e+00 -9.322283744812011719e+00 -6.067136764526367188e+01
-5.506505584716796875e+01 6.634464740753173828e+00 -5.563911914825439453e+00 6.634464740753173828e+00 -2.325536537170410156e+01 -1.602225303649902344e+01 -5.563911914825439453e+00 -1.602225303649902344e+01 -9.571409225463867188e+00
-4.873741149902343750e+01 3.863128423690795898e+00 1.380357551574707031e+01 3.863128423690795898e+00 -3.747071075439453125e+01 2.877802848815917969e+01 1.380357551574707031e+01 2.877802848815917969e+01 -2.218712234497070312e+01
-3.535740661621093750e+01 -1.103982543945312500e+01 9.895452499389648438e+00 -1.103982543945312500e+01 -2.392823028564453125e+01 -1.850533843040466309e+00 9.895452499389648438e+00 -1.850533843040466309e+00 -5.123415756225585938e+01
-5.888766860961914062e+01 1.895833587646484375e+01 -7.723071098327636719e+00 1.895833587646484375e+01 -2.464637565612792969e+01 -1.727414703369140625e+01 -7.723071098327636719e+00 -1.727414703369140625e+01 -2.845162010192871094e+01
-2.821428108215332031e+01 -2.723283195495605469e+01 -1.787238121032714844e+01 -2.723283195495605469e+01 -3.467813873291015625e+01 -2.471436500549316406e+00 -1.787238121032714844e+01 -2.471436500549316406e+00 -3.574798583984375000e+01
-2.933429718017578125e+01 5.025883197784423828e+00 4.088215827941894531e+00 5.025883197784423828e+00 -4.569290161132812500e+01 -2.161483001708984375e+01 4.088215827941894531e+00 -2.161483001708984375e+01 -3.913351440429687500e+01
-5.294192504882812500e+01 1.324290180206298828e+01 -1.424220752716064453e+01 1.324290180206298828e+01 -5.341946411132812500e+01 3.863646030426025391e+00 -1.424220752716064453e+01 3.863646030426025391e+00 -6.404035186767578125e+01
-3.421167755126953125e+01 4.983345031738281250e+00 -4.661062717437744141e+00 4.983345031738281250e+00 -6.486735534667968750e+01 5.805836200714111328e+00 -4.661062717437744141e+00 5.805836200714111328e+00 -8.788886260986328125e+01
-7.238536834716796875e+01 9.758004918694496155e-03 -1.324075794219970703e+01 9.758004918694496155e-03 -3.404862594604492188e+01 -3.848936080932617188e+00 -1.324075794219970703e+01 -3.848936080932617188e+00 -6.694031524658203125e+01
-2.529476928710937500e+01 -5.463469505310058594e+00 9.251638412475585938e+00 -5.463469505310058594e+00 -3.885444259643554688e+01 -2.375772857666015625e+01 9.251638412475585938e+00 -2.375772857666015625e+01 -2.795298576354980469e+01
-2.637052536010742188e+01 -2.906963348388671875e+01 6.107484817504882812e+00 -2.906963348388671875e+01 -1.507477283477783203e+01 -3.287695646286010742e-01 6.107484817504882812e+00 -3.287695646286010742e-01 -3.396530914306640625e+01
6.977077484130859375e+00 -2.039035415649414062e+01 1.354753303527832031e+01 -2.039035415649414062e+01 -2.844131278991699219e+01 2.264613342285156250e+01 1.354753303527832031e+01 2.264613342285156250e+01 -4.835237884521484375e+01
-3.110099029541015625e+01 -6.458628177642822266e-01 1.651629257202148438e+01 -6.458628177642822266e-01 -2.342220115661621094e+01 8.526106476783752441e-01 1.651629257202148438e+01 8.526106476783752441e-01 -3.232444763183593750e+01
-1.540449333190917969e+01 8.921435356140136719e+00 3.598110675811767578e+00 8.921435356140136719e+00 -1.453531169891357422e+01 -3.862457275390625000e+01 3.598110675811767578e+00 -3.862457275390625000e+01 -5.492473125457763672e+00
-3.361931228637695312e+01 -5.514072418212890625e+00 -1.902439689636230469e+01 -5.514072418212890625e+00 -4.125087356567382812e+01 -9.051306247711181641e-01 -1.902439689636230469e+01 -9.051306247711181641e-01 -1.258483982086181641e+01
-2.950874137878417969e+01 8.624167442321777344e+00 -2.277481269836425781e+01 8.624167442321777344e+00 -5.152574539184570312e+01 -1.734554100036621094e+01 -2.277481269836425781e+01 -1.734554100036621094e+01 -5.535835647583007812e+01
1.230575323104858398e+00 1.470535278320312500e+01 -8.969227790832519531e+00 1.470535278320312500e+01 -7.591724395751953125e+01 -9.322283744812011719e+00 -8.969227790832519531e+00 -9.322283744812011719e+00 -6.067136764526367188e+01
-2.383748054504394531e+01 1.779560661315917969e+01 -6.157889366149902344e-01 1.779560661315917969e+01 -2.175895500183105469e+01 -7.426247596740722656e+00 -6.157889366149902344e-01 -7.426247596740722656e+00 -3.680241775512695312e+01
-5.530916976928710938e+01 -1.129381084442138672e+01 3.355639278888702393e-01 -1.129381084442138672e+01 -8.637191772460937500e+00 -7.468258857727050781e+00 3.355639278888702393e-01 -7.468258857727050781e+00 -4.374875259399414062e+01
-2.243789291381835938e+01 9.217345237731933594e+00 -3.684510946273803711e+00 9.217345237731933594e+00 -3.822294235229492188e+01 7.064799308776855469e+00 -3.684510946273803711e+00 7.064799308776855469e+00 1.854363232851028442e-01
-4.116774749755859375e+01 -3.326556831598281860e-02 7.231200337409973145e-01 -3.326556831598281860e-02 -4.171434020996093750e+01 -1.416556167602539062e+01 7.231200337409973145e-01 -1.416556167602539062e+01 -3.570042800903320312e+01
-3.935149002075195312e+01 1.552109527587890625e+01 8.214274406433105469e+00 1.552109527587890625e+01 -5.308979797363281250e+01 -1.077944564819335938e+01 8.214274406433105469e+00 -1.077944564819335938e+01 -3.981686401367187500e+01