1.788999938964843750e+01 0.000000000000000000e+00 0.000000000000000000e+00 -1.860000044107437134e-01 1.805400085449218750e+01 0.000000000000000000e+00 -3.729999959468841553e-01 -3.630000054836273193e-01 1.781800079345703125e+01
1.807399940490722656e+01 0.000000000000000000e+00 0.000000000000000000e+00 -1.879999935626983643e-01 1.823999977111816406e+01 0.000000000000000000e+00 -3.770000040531158447e-01 -3.670000135898590088e-01 1.800099945068359375e+01
1.833399963378906250e+01 0.000000000000000000e+00 0.000000000000000000e+00 -1.909999996423721313e-01 1.850200080871582031e+01 0.000000000000000000e+00 -3.819999992847442627e-01 -3.720000088214874268e-01 1.826000022888183594e+01
1.843799972534179688e+01 0.000000000000000000e+00 0.000000000000000000e+00 -1.920000016689300537e-01 1.860799980163574219e+01 0.000000000000000000e+00 -3.849999904632568359e-01 -3.740000128746032715e-01 1.836400032043457031e+01
1.847100067138671875e+01 0.000000000000000000e+00 0.000000000000000000e+00 -1.920000016689300537e-01 1.863999938964843750e+01 0.000000000000000000e+00 -3.849999904632568359e-01 -3.750000000000000000e-01 1.839599990844726562e+01
1.822599983215332031e+01 0.000000000000000000e+00 0.000000000000000000e+00 -1.899999976158142090e-01 1.839299964904785156e+01 0.000000000000000000e+00 -3.799999952316284180e-01 -3.700000047683715820e-01 1.815200042724609375e+01
1.824300003051757812e+01 0.000000000000000000e+00 0.000000000000000000e+00 -1.899999976158142090e-01 1.841099929809570312e+01 0.000000000000000000e+00 -3.810000121593475342e-01 -3.700000047683715820e-01 1.817000007629394531e+01
1.827099990844726562e+01 0.000000000000000000e+00 0.000000000000000000e+00 -1.899999976158142090e-01 1.843899917602539062e+01 0.000000000000000000e+00 -3.810000121593475342e-01 -3.709999918937683105e-01 1.819700050354003906e+01
1.847100067138671875e+01 0.000000000000000000e+00 0.000000000000000000e+00 -1.920000016689300537e-01 1.863999938964843750e+01 0.000000000000000000e+00 -3.849999904632568359e-01 -3.750000000000000000e-01 1.839599990844726562e+01
1.846999931335449219e+01 0.000000000000000000e+00 0.000000000000000000e+00 -1.920000016689300537e-01 1.863999938964843750e+01 0.000000000000000000e+00 -3.849999904632568359e-01 -3.750000000000000000e-01 1.839500045776367188e+01
1.797500038146972656e+01 0.000000000000000000e+00 0.000000000000000000e+00 -1.870000064373016357e-01 1.813999938964843750e+01 0.000000000000000000e+00 -3.750000000000000000e-01 -3.650000095367431641e-01 1.790299987792968750e+01
1.831699943542480469e+01 0.000000000000000000e+00 0.000000000000000000e+00 -1.909999996423721313e-01 1.848500061035156250e+01 0.000000000000000000e+00 -3.819999992847442627e-01 -3.720000088214874268e-01 1.824300003051757812e+01
1.846199989318847656e+01 0.000000000000000000e+00 0.000000000000000000e+00 -1.920000016689300537e-01 1.863199996948242188e+01 0.000000000000000000e+00 -3.849999904632568359e-01 -3.750000000000000000e-01 1.838800048828125000e+01
1.841600036621093750e+01 0.000000000000000000e+00 0.000000000000000000e+00 -1.920000016689300537e-01 1.858499908447265625e+01 0.000000000000000000e+00 -3.840000033378601074e-01 -3.740000128746032715e-01 1.834099960327148438e+01
1.857900047302246094e+01 0.000000000000000000e+00 0.000000000000000000e+00 -1.940000057220458984e-01 1.875000000000000000e+01 0.000000000000000000e+00 -3.880000114440917969e-01 -3.770000040531158447e-01 1.850499916076660156e+01
1.877000045776367188e+01 0.000000000000000000e+00 0.000000000000000000e+00 -1.959999948740005493e-01 1.894300079345703125e+01 0.000000000000000000e+00 -3.919999897480010986e-01 -3.810000121593475342e-01 1.869499969482421875e+01
1.895000076293945312e+01 0.000000000000000000e+00 0.000000000000000000e+00 -1.969999969005584717e-01 1.912400054931640625e+01 0.000000000000000000e+00 -3.950000107288360596e-01 -3.840000033378601074e-01 1.887400054931640625e+01
1.898800086975097656e+01 0.000000000000000000e+00 0.000000000000000000e+00 -1.979999989271163940e-01 1.916200065612792969e+01 0.000000000000000000e+00 -3.959999978542327881e-01 -3.849999904632568359e-01 1.891099929809570312e+01
1.891699981689453125e+01 0.000000000000000000e+00 0.000000000000000000e+00 -1.969999969005584717e-01 1.909099960327148438e+01 0.000000000000000000e+00 -3.950000107288360596e-01 -3.840000033378601074e-01 1.884099960327148438e+01
1.900799942016601562e+01 0.000000000000000000e+00 0.000000000000000000e+00 -1.979999989271163940e-01 1.918300056457519531e+01 0.000000000000000000e+00 -3.970000147819519043e-01 -3.860000073909759521e-01 1.893099975585937500e+01
1.917700004577636719e+01 0.000000000000000000e+00 0.000000000000000000e+00 -2.000000029802322388e-01 1.935300064086914062e+01 0.000000000000000000e+00 -4.000000059604644775e-01 -3.889999985694885254e-01 1.910000038146972656e+01
1.922800064086914062e+01 0.000000000000000000e+00 0.000000000000000000e+00 -2.000000029802322388e-01 1.940500068664550781e+01 0.000000000000000000e+00 -4.009999930858612061e-01 -3.899999856948852539e-01 1.915099906921386719e+01
1.910700035095214844e+01 0.000000000000000000e+00 0.000000000000000000e+00 -1.990000009536743164e-01 1.928300094604492188e+01 0.000000000000000000e+00 -3.989999890327453613e-01 -3.880000114440917969e-01 1.903100013732910156e+01
1.912899971008300781e+01 0.000000000000000000e+00 0.000000000000000000e+00 -1.990000009536743164e-01 1.930400085449218750e+01 0.000000000000000000e+00 -3.989999890327453613e-01 -3.880000114440917969e-01 1.905200004577636719e+01
1.860899925231933594e+01 0.000000000000000000e+00 0.000000000000000000e+00 -1.940000057220458984e-01 1.878000068664550781e+01 0.000000000000000000e+00 -3.880000114440917969e-01 -3.770000040531158447e-01 1.853400039672851562e+01
1.876099967956542969e+01 0.000000000000000000e+00 0.000000000000000000e+00 -1.949999928474426270e-01 1.893300056457519531e+01 0.000000000000000000e+00 -3.910000026226043701e-01 -3.810000121593475342e-01 1.868499946594238281e+01
1.890399932861328125e+01 0.000000000000000000e+00 0.000000000000000000e+00 -1.969999969005584717e-01 1.907799911499023438e+01 0.000000000000000000e+00 -3.939999938011169434e-01 -3.829999864101409912e-01 1.882799911499023438e+01
1.892200088500976562e+01 0.000000000000000000e+00 0.000000000000000000e+00 -1.969999969005584717e-01 1.909600067138671875e+01 0.000000000000000000e+00 -3.950000107288360596e-01 -3.840000033378601074e-01 1.884600067138671875e+01
1.919700050354003906e+01 0.000000000000000000e+00 0.000000000000000000e+00 -2.000000029802322388e-01 1.937400054931640625e+01 0.000000000000000000e+00 -4.009999930858612061e-01 -3.889999985694885254e-01 1.912000083923339844e+01
1.884700012207031250e+01 0.000000000000000000e+00 0.000000000000000000e+00 -1.959999948740005493e-01 1.902000045776367188e+01 0.000000000000000000e+00 -3.930000066757202148e-01 -3.819999992847442627e-01 1.877099990844726562e+01
1.888999938964843750e+01 0.000000000000000000e+00 0.000000000000000000e+00 -1.969999969005584717e-01 1.906299972534179688e+01 0.000000000000000000e+00 -3.939999938011169434e-01 -3.829999864101409912e-01 1.881399917602539062e+01
1.897900009155273438e+01 0.000000000000000000e+00 0.000000000000000000e+00 -1.979999989271163940e-01 1.915299987792968750e+01 0.000000000000000000e+00 -3.959999978542327881e-01 -3.849999904632568359e-01 1.890200042724609375e+01
1.916900062561035156e+01 0.000000000000000000e+00 0.000000000000000000e+00 -2.000000029802322388e-01 1.934600067138671875e+01 0.000000000000000000e+00 -4.000000059604644775e-01 -3.889999985694885254e-01 1.909199905395507812e+01
1.923600006103515625e+01 0.000000000000000000e+00 0.000000000000000000e+00 -2.000000029802322388e-01 1.941200065612792969e+01 0.000000000000000000e+00 -4.009999930858612061e-01 -3.899999856948852539e-01 1.915800094604492188e+01
1.903499984741210938e+01 0.000000000000000000e+00 0.000000000000000000e+00 -1.979999989271163940e-01 1.920999908447265625e+01 0.000000000000000000e+00 -3.970000147819519043e-01 -3.860000073909759521e-01 1.895800018310546875e+01
1.884799957275390625e+01 0.000000000000000000e+00 0.000000000000000000e+00 -1.959999948740005493e-01 1.902099990844726562e+01 0.000000000000000000e+00 -3.930000066757202148e-01 -3.819999992847442627e-01 1.877199935913085938e+01
1.891200065612792969e+01 0.000000000000000000e+00 0.000000000000000000e+00 -1.969999969005584717e-01 1.908600044250488281e+01 0.000000000000000000e+00 -3.950000107288360596e-01 -3.840000033378601074e-01 1.883600044250488281e+01
1.899900054931640625e+01 0.000000000000000000e+00 0.000000000000000000e+00 -1.979999989271163940e-01 1.917300033569335938e+01 0.000000000000000000e+00 -3.959999978542327881e-01 -3.849999904632568359e-01 1.892200088500976562e+01
1.908799934387207031e+01 0.000000000000000000e+00 0.000000000000000000e+00 -1.990000009536743164e-01 1.926300048828125000e+01 0.000000000000000000e+00 -3.980000019073486328e-01 -3.869999945163726807e-01 1.901099967956542969e+01
1.915200042724609375e+01 0.000000000000000000e+00 0.000000000000000000e+00 -1.990000009536743164e-01 1.932799911499023438e+01 0.000000000000000000e+00 -4.000000059604644775e-01 -3.889999985694885254e-01 1.907500076293945312e+01
1.882699966430664062e+01 0.000000000000000000e+00 0.000000000000000000e+00 -1.959999948740005493e-01 1.900000000000000000e+01 0.000000000000000000e+00 -3.930000066757202148e-01 -3.819999992847442627e-01 1.875099945068359375e+01
1.750000000000000000e+01 0.000000000000000000e+00 0.000000000000000000e+00 1.809999942779541016e-01 1.796999931335449219e+01 0.000000000000000000e+00 2.709999978542327881e-01 1.509999930858612061e-01 1.832299995422363281e+01
1.788699913024902344e+01 0.000000000000000000e+00 0.000000000000000000e+00 1.850000023841857910e-01 1.836700057983398438e+01 0.000000000000000000e+00 2.770000100135803223e-01 1.539999991655349731e-01 1.872800064086914062e+01
1.808900070190429688e+01 0.000000000000000000e+00 0.000000000000000000e+00 1.870000064373016357e-01 1.857399940490722656e+01 0.000000000000000000e+00 2.800000011920928955e-01 1.560000032186508179e-01 1.893899917602539062e+01
1.818300056457519531e+01 0.000000000000000000e+00 0.000000000000000000e+00 1.879999935626983643e-01 1.867099952697753906e+01 0.000000000000000000e+00 2.809999883174896240e-01 1.570000052452087402e-01 1.903800010681152344e+01
1.821800041198730469e+01 0.000000000000000000e+00 0.000000000000000000e+00 1.879999935626983643e-01 1.870700073242187500e+01 0.000000000000000000e+00 2.820000052452087402e-01 1.570000052452087402e-01 1.907500076293945312e+01
1.817700004577636719e+01 0.000000000000000000e+00 0.000000000000000000e+00 1.879999935626983643e-01 1.866500091552734375e+01 0.000000000000000000e+00 2.809999883174896240e-01 1.570000052452087402e-01 1.903199958801269531e+01
1.773100090026855469e+01 0.000000000000000000e+00 0.000000000000000000e+00 1.829999983310699463e-01 1.820700073242187500e+01 0.000000000000000000e+00 2.739999890327453613e-01 1.529999971389770508e-01 1.856500053405761719e+01
1.814699935913085938e+01 0.000000000000000000e+00 0.000000000000000000e+00 1.879999935626983643e-01 1.863400077819824219e+01 0.000000000000000000e+00 2.809999883174896240e-01 1.570000052452087402e-01 1.900099945068359375e+01
1.813599967956542969e+01 0.000000000000000000e+00 0.000000000000000000e+00 1.870000064373016357e-01 1.862299919128417969e+01 0.000000000000000000e+00 2.800000011920928955e-01 1.570000052452087402e-01 1.898900032043457031e+01
1.798900032043457031e+01 0.000000000000000000e+00 0.000000000000000000e+00 1.860000044107437134e-01 1.847200012207031250e+01 0.000000000000000000e+00 2.779999971389770508e-01 1.550000011920928955e-01 1.883499908447265625e+01
1.819799995422363281e+01 0.000000000000000000e+00 0.000000000000000000e+00 1.879999935626983643e-01 1.868600082397460938e+01 0.000000000000000000e+00 2.809999883174896240e-01 1.570000052452087402e-01 1.905400085449218750e+01
1.814999961853027344e+01 0.000000000000000000e+00 0.000000000000000000e+00 1.879999935626983643e-01 1.863800048828125000e+01 0.000000000000000000e+00 2.809999883174896240e-01 1.570000052452087402e-01 1.900399971008300781e+01
1.814599990844726562e+01 0.000000000000000000e+00 0.000000000000000000e+00 1.879999935626983643e-01 1.863299942016601562e+01 0.000000000000000000e+00 2.809999883174896240e-01 1.570000052452087402e-01 1.899900054931640625e+01
1.827599906921386719e+01 0.000000000000000000e+00 0.000000000000000000e+00 1.889999955892562866e-01 1.876600074768066406e+01 0.000000000000000000e+00 2.829999923706054688e-01 1.580000072717666626e-01 1.913500022888183594e+01
1.827000045776367188e+01 0.000000000000000000e+00 0.000000000000000000e+00 1.889999955892562866e-01 1.876099967956542969e+01 0.000000000000000000e+00 2.829999923706054688e-01 1.580000072717666626e-01 1.912999916076660156e+01
1.826499938964843750e+01 0.000000000000000000e+00 0.000000000000000000e+00 1.889999955892562866e-01 1.875499916076660156e+01 0.000000000000000000e+00 2.820000052452087402e-01 1.580000072717666626e-01 1.912400054931640625e+01
1.822200012207031250e+01 0.000000000000000000e+00 0.000000000000000000e+00 1.879999935626983643e-01 1.871100044250488281e+01 0.000000000000000000e+00 2.820000052452087402e-01 1.570000052452087402e-01 1.907900047302246094e+01
1.824099922180175781e+01 0.000000000000000000e+00 0.000000000000000000e+00 1.889999955892562866e-01 1.873100090026855469e+01 0.000000000000000000e+00 2.820000052452087402e-01 1.580000072717666626e-01 1.909900093078613281e+01
1.848399925231933594e+01 0.000000000000000000e+00 0.000000000000000000e+00 1.909999996423721313e-01 1.898100090026855469e+01 0.000000000000000000e+00 2.860000133514404297e-01 1.599999964237213135e-01 1.935400009155273438e+01
1.878599929809570312e+01 0.000000000000000000e+00 0.000000000000000000e+00 1.940000057220458984e-01 1.929100036621093750e+01 0.000000000000000000e+00 2.899999916553497314e-01 1.620000004768371582e-01 1.967000007629394531e+01
1.857500076293945312e+01 0.000000000000000000e+00 0.000000000000000000e+00 1.920000016689300537e-01 1.907399940490722656e+01 0.000000000000000000e+00 2.870000004768371582e-01 1.599999964237213135e-01 1.944899940490722656e+01
1.872999954223632812e+01 0.000000000000000000e+00 0.000000000000000000e+00 1.940000057220458984e-01 1.923299980163574219e+01 0.000000000000000000e+00 2.899999916553497314e-01 1.620000004768371582e-01 1.961100006103515625e+01
1.872100067138671875e+01 0.000000000000000000e+00 0.000000000000000000e+00 1.930000036954879761e-01 1.922400093078613281e+01 0.000000000000000000e+00 2.890000045299530029e-01 1.620000004768371582e-01 1.960199928283691406e+01
1.855100059509277344e+01 0.000000000000000000e+00 0.000000000000000000e+00 1.920000016689300537e-01 1.904899978637695312e+01 0.000000000000000000e+00 2.870000004768371582e-01 1.599999964237213135e-01 1.942399978637695312e+01
1.877199935913085938e+01 0.000000000000000000e+00 0.000000000000000000e+00 1.940000057220458984e-01 1.927599906921386719e+01 0.000000000000000000e+00 2.899999916553497314e-01 1.620000004768371582e-01 1.965399932861328125e+01
1.883799934387207031e+01 0.000000000000000000e+00 0.000000000000000000e+00 1.949999928474426270e-01 1.934399986267089844e+01 0.000000000000000000e+00 2.910000085830688477e-01 1.630000025033950806e-01 1.972400093078613281e+01
1.898399925231933594e+01 0.000000000000000000e+00 0.000000000000000000e+00 1.959999948740005493e-01 1.949399948120117188e+01 0.000000000000000000e+00 2.939999997615814209e-01 1.640000045299530029e-01 1.987700080871582031e+01
1.917099952697753906e+01 0.000000000000000000e+00 0.000000000000000000e+00 1.979999989271163940e-01 1.968600082397460938e+01 0.000000000000000000e+00 2.960000038146972656e-01 1.659999936819076538e-01 2.007299995422363281e+01
1.925900077819824219e+01 0.000000000000000000e+00 0.000000000000000000e+00 1.990000009536743164e-01 1.977599906921386719e+01 0.000000000000000000e+00 2.980000078678131104e-01 1.659999936819076538e-01 2.016500091552734375e+01
1.893199920654296875e+01 0.000000000000000000e+00 0.000000000000000000e+00 1.959999948740005493e-01 1.944099998474121094e+01 0.000000000000000000e+00 2.930000126361846924e-01 1.640000045299530029e-01 1.982299995422363281e+01
1.881599998474121094e+01 0.000000000000000000e+00 0.000000000000000000e+00 1.940000057220458984e-01 1.932099914550781250e+01 0.000000000000000000e+00 2.910000085830688477e-01 1.630000025033950806e-01 1.970100021362304688e+01
1.895999908447265625e+01 0.000000000000000000e+00 0.000000000000000000e+00 1.959999948740005493e-01 1.946899986267089844e+01 0.000000000000000000e+00 2.930000126361846924e-01 1.640000045299530029e-01 1.985199928283691406e+01
1.761100006103515625e+01 0.000000000000000000e+00 0.000000000000000000e+00 1.819999963045120239e-01 1.808399963378906250e+01 0.000000000000000000e+00 2.720000147819519043e-01 1.519999951124191284e-01 1.843899917602539062e+01
1.804000091552734375e+01 0.000000000000000000e+00 0.000000000000000000e+00 1.860000044107437134e-01 1.852499961853027344e+01 0.000000000000000000e+00 2.790000140666961670e-01 1.560000032186508179e-01 1.888899993896484375e+01
1.784199905395507812e+01 0.000000000000000000e+00 0.000000000000000000e+00 1.840000003576278687e-01 1.832099914550781250e+01 0.000000000000000000e+00 2.759999930858612061e-01 1.539999991655349731e-01 1.868099975585937500e+01
1.837199974060058594e+01 0.000000000000000000e+00 0.000000000000000000e+00 1.899999976158142090e-01 1.886599922180175781e+01 0.000000000000000000e+00 2.840000092983245850e-01 1.589999943971633911e-01 1.923600006103515625e+01
1.834399986267089844e+01 0.000000000000000000e+00 0.000000000000000000e+00 1.899999976158142090e-01 1.883600044250488281e+01 0.000000000000000000e+00 2.840000092983245850e-01 1.580000072717666626e-01 1.920599937438964844e+01
1.851499938964843750e+01 0.000000000000000000e+00 0.000000000000000000e+00 1.909999996423721313e-01 1.901199913024902344e+01 0.000000000000000000e+00 2.860000133514404297e-01 1.599999964237213135e-01 1.938599967956542969e+01
1.844599914550781250e+01 0.000000000000000000e+00 0.000000000000000000e+00 1.909999996423721313e-01 1.894199943542480469e+01 0.000000000000000000e+00 2.849999964237213135e-01 1.589999943971633911e-01 1.931399917602539062e+01
1.843300056457519531e+01 0.000000000000000000e+00 0.000000000000000000e+00 1.909999996423721313e-01 1.892799949645996094e+01 0.000000000000000000e+00 2.849999964237213135e-01 1.589999943971633911e-01 1.929999923706054688e+01
1.854700088500976562e+01 0.000000000000000000e+00 0.000000000000000000e+00 1.920000016689300537e-01 1.904500007629394531e+01 0.000000000000000000e+00 2.870000004768371582e-01 1.599999964237213135e-01 1.941900062561035156e+01
1.864699935913085938e+01 0.000000000000000000e+00 0.000000000000000000e+00 1.930000036954879761e-01 1.914800071716308594e+01 0.000000000000000000e+00 2.879999876022338867e-01 1.609999984502792358e-01 1.952400016784667969e+01
1.861199951171875000e+01 0.000000000000000000e+00 0.000000000000000000e+00 1.920000016689300537e-01 1.911100006103515625e+01 0.000000000000000000e+00 2.879999876022338867e-01 1.609999984502792358e-01 1.948699951171875000e+01
1.851099967956542969e+01 0.000000000000000000e+00 0.000000000000000000e+00 1.909999996423721313e-01 1.900799942016601562e+01 0.000000000000000000e+00 2.860000133514404297e-01 1.599999964237213135e-01 1.938199996948242188e+01
1.854599952697753906e+01 0.000000000000000000e+00 0.000000000000000000e+00 1.920000016689300537e-01 1.904400062561035156e+01 0.000000000000000000e+00 2.870000004768371582e-01 1.599999964237213135e-01 1.941799926757812500e+01
1.866099929809570312e+01 0.000000000000000000e+00 0.000000000000000000e+00 1.930000036954879761e-01 1.916200065612792969e+01 0.000000000000000000e+00 2.890000045299530029e-01 1.609999984502792358e-01 1.953800010681152344e+01
1.839100074768066406e+01 0.000000000000000000e+00 0.000000000000000000e+00 1.500000059604644775e-01 1.784399986267089844e+01 0.000000000000000000e+00 1.070000007748603821e-01 2.199999988079071045e-01 1.765299987792968750e+01
1.834799957275390625e+01 0.000000000000000000e+00 0.000000000000000000e+00 1.490000039339065552e-01 1.780100059509277344e+01 0.000000000000000000e+00 1.070000007748603821e-01 2.199999988079071045e-01 1.761100006103515625e+01
1.868799972534179688e+01 0.000000000000000000e+00 0.000000000000000000e+00 1.519999951124191284e-01 1.813100051879882812e+01 0.000000000000000000e+00 1.089999973773956299e-01 2.240000069141387939e-01 1.793799972534179688e+01
1.884499931335449219e+01 0.000000000000000000e+00 0.000000000000000000e+00 1.529999971389770508e-01 1.828400039672851562e+01 0.000000000000000000e+00 1.099999994039535522e-01 2.259999960660934448e-01 1.808900070190429688e+01
1.888999938964843750e+01 0.000000000000000000e+00 0.000000000000000000e+00 1.539999991655349731e-01 1.832699966430664062e+01 0.000000000000000000e+00 1.099999994039535522e-01 2.259999960660934448e-01 1.813199996948242188e+01
1.902199935913085938e+01 0.000000000000000000e+00 0.000000000000000000e+00 1.550000011920928955e-01 1.845599937438964844e+01 0.000000000000000000e+00 1.110000014305114746e-01 2.280000001192092896e-01 1.825900077819824219e+01
1.906200027465820312e+01 0.000000000000000000e+00 0.000000000000000000e+00 1.550000011920928955e-01 1.849500083923339844e+01 0.000000000000000000e+00 1.110000014305114746e-01 2.280000001192092896e-01 1.829700088500976562e+01
1.955599975585937500e+01 0.000000000000000000e+00 0.000000000000000000e+00 1.589999943971633911e-01 1.897400093078613281e+01 0.000000000000000000e+00 1.140000000596046448e-01 2.339999973773956299e-01 1.877199935913085938e+01
1.933499908447265625e+01 0.000000000000000000e+00 0.000000000000000000e+00 1.570000052452087402e-01 1.876000022888183594e+01 0.000000000000000000e+00 1.129999980330467224e-01 2.319999933242797852e-01 1.855900001525878906e+01
1.920899963378906250e+01 0.000000000000000000e+00 0.000000000000000000e+00 1.560000032186508179e-01 1.863699913024902344e+01 0.000000000000000000e+00 1.120000034570693970e-01 2.300000041723251343e-01 1.843799972534179688e+01
1.921999931335449219e+01 0.000000000000000000e+00 0.000000000000000000e+00 1.560000032186508179e-01 1.864800071716308594e+01 0.000000000000000000e+00 1.120000034570693970e-01 2.300000041723251343e-01 1.844899940490722656e+01
1.930800056457519531e+01 0.000000000000000000e+00 0.000000000000000000e+00 1.570000052452087402e-01 1.873299980163574219e+01 0.000000000000000000e+00 1.129999980330467224e-01 2.310000061988830566e-01 1.853300094604492188e+01
1.941200065612792969e+01 0.000000000000000000e+00 0.000000000000000000e+00 1.580000072717666626e-01 1.883399963378906250e+01 0.000000000000000000e+00 1.129999980330467224e-01 2.329999953508377075e-01 1.863299942016601562e+01
1.926600074768066406e+01 0.000000000000000000e+00 0.000000000000000000e+00 1.570000052452087402e-01 1.869300079345703125e+01 0.000000000000000000e+00 1.120000034570693970e-01 2.310000061988830566e-01 1.849300003051757812e+01
1.934499931335449219e+01 0.000000000000000000e+00 0.000000000000000000e+00 1.570000052452087402e-01 1.876899909973144531e+01 0.000000000000000000e+00 1.129999980330467224e-01 2.319999933242797852e-01 1.856900024414062500e+01
1.958600044250488281e+01 0.000000000000000000e+00 0.000000000000000000e+00 1.589999943971633911e-01 1.900200080871582031e+01 0.000000000000000000e+00 1.140000000596046448e-01 2.349999994039535522e-01 1.879999923706054688e+01
1.961700057983398438e+01 0.000000000000000000e+00 0.000000000000000000e+00 1.599999964237213135e-01 1.903300094604492188e+01 0.000000000000000000e+00 1.150000020861625671e-01 2.349999994039535522e-01 1.882999992370605469e+01
1.969199943542480469e+01 0.000000000000000000e+00 0.000000000000000000e+00 1.599999964237213135e-01 1.910499954223632812e+01 0.000000000000000000e+00 1.150000020861625671e-01 2.360000014305114746e-01 1.890200042724609375e+01
1.966300010681152344e+01 0.000000000000000000e+00 0.000000000000000000e+00 1.599999964237213135e-01 1.907699966430664062e+01 0.000000000000000000e+00 1.150000020861625671e-01 2.360000014305114746e-01 1.887400054931640625e+01
1.976600074768066406e+01 0.000000000000000000e+00 0.000000000000000000e+00 1.609999984502792358e-01 1.917799949645996094e+01 0.000000000000000000e+00 1.150000020861625671e-01 2.370000034570693970e-01 1.897299957275390625e+01
1.988299942016601562e+01 0.000000000000000000e+00 0.000000000000000000e+00 1.620000004768371582e-01 1.929100036621093750e+01 0.000000000000000000e+00 1.159999966621398926e-01 2.380000054836273193e-01 1.908499908447265625e+01
2.009399986267089844e+01 0.000000000000000000e+00 0.000000000000000000e+00 1.630000025033950806e-01 1.949600028991699219e+01 0.000000000000000000e+00 1.169999986886978149e-01 2.409999966621398926e-01 1.928800010681152344e+01
2.012199974060058594e+01 0.000000000000000000e+00 0.000000000000000000e+00 1.640000045299530029e-01 1.952300071716308594e+01 0.000000000000000000e+00 1.169999986886978149e-01 2.409999966621398926e-01 1.931399917602539062e+01
2.009000015258789062e+01 0.000000000000000000e+00 0.000000000000000000e+00 1.630000025033950806e-01 1.949099922180175781e+01 0.000000000000000000e+00 1.169999986886978149e-01 2.409999966621398926e-01 1.928300094604492188e+01
2.023100090026855469e+01 0.000000000000000000e+00 0.000000000000000000e+00 1.650000065565109253e-01 1.962899971008300781e+01 0.000000000000000000e+00 1.180000007152557373e-01 2.430000007152557373e-01 1.941900062561035156e+01
2.004500007629394531e+01 0.000000000000000000e+00 0.000000000000000000e+00 1.630000025033950806e-01 1.944799995422363281e+01 0.000000000000000000e+00 1.169999986886978149e-01 2.399999946355819702e-01 1.923999977111816406e+01
1.991399955749511719e+01 0.000000000000000000e+00 0.000000000000000000e+00 1.620000004768371582e-01 1.932099914550781250e+01 0.000000000000000000e+00 1.159999966621398926e-01 2.389999926090240479e-01 1.911499977111816406e+01
1.896699905395507812e+01 0.000000000000000000e+00 0.000000000000000000e+00 1.539999991655349731e-01 1.840200042724609375e+01 0.000000000000000000e+00 1.110000014305114746e-01 2.269999980926513672e-01 1.820599937438964844e+01
1.892600059509277344e+01 0.000000000000000000e+00 0.000000000000000000e+00 1.539999991655349731e-01 1.836199951171875000e+01 0.000000000000000000e+00 1.099999994039535522e-01 2.269999980926513672e-01 1.816600036621093750e+01
1.919700050354003906e+01 0.000000000000000000e+00 0.000000000000000000e+00 1.560000032186508179e-01 1.862500000000000000e+01 0.000000000000000000e+00 1.120000034570693970e-01 2.300000041723251343e-01 1.842700004577636719e+01
1.918899917602539062e+01 0.000000000000000000e+00 0.000000000000000000e+00 1.560000032186508179e-01 1.861800003051757812e+01 0.000000000000000000e+00 1.120000034570693970e-01 2.300000041723251343e-01 1.841900062561035156e+01
1.939200019836425781e+01 0.000000000000000000e+00 0.000000000000000000e+00 1.580000072717666626e-01 1.881399917602539062e+01 0.000000000000000000e+00 1.129999980330467224e-01 2.319999933242797852e-01 1.861300086975097656e+01
1.955800056457519531e+01 0.000000000000000000e+00 0.000000000000000000e+00 1.589999943971633911e-01 1.897599983215332031e+01 0.000000000000000000e+00 1.140000000596046448e-01 2.339999973773956299e-01 1.877300071716308594e+01
1.961300086975097656e+01 0.000000000000000000e+00 0.000000000000000000e+00 1.589999943971633911e-01 1.902899932861328125e+01 0.000000000000000000e+00 1.140000000596046448e-01 2.349999994039535522e-01 1.882500076293945312e+01
1.960300064086914062e+01 0.000000000000000000e+00 0.000000000000000000e+00 1.589999943971633911e-01 1.901899909973144531e+01 0.000000000000000000e+00 1.140000000596046448e-01 2.349999994039535522e-01 1.881599998474121094e+01
1.968700027465820312e+01 0.000000000000000000e+00 0.000000000000000000e+00 1.599999964237213135e-01 1.910099983215332031e+01 0.000000000000000000e+00 1.150000020861625671e-01 2.360000014305114746e-01 1.889699935913085938e+01
1.945199966430664062e+01 0.000000000000000000e+00 0.000000000000000000e+00 1.580000072717666626e-01 1.887299919128417969e+01 0.000000000000000000e+00 1.140000000596046448e-01 2.329999953508377075e-01 1.867200088500976562e+01
1.796400070190429688e+01 0.000000000000000000e+00 0.000000000000000000e+00 3.560000061988830566e-01 1.840299987792968750e+01 0.000000000000000000e+00 -2.230000048875808716e-01 3.700000047683715820e-02 1.772699928283691406e+01
1.786599922180175781e+01 0.000000000000000000e+00 0.000000000000000000e+00 3.540000021457672119e-01 1.830299949645996094e+01 0.000000000000000000e+00 -2.220000028610229492e-01 3.599999845027923584e-02 1.763100051879882812e+01
1.782900047302246094e+01 0.000000000000000000e+00 0.000000000000000000e+00 3.540000021457672119e-01 1.826499938964843750e+01 0.000000000000000000e+00 -2.210000008344650269e-01 3.599999845027923584e-02 1.759399986267089844e+01
1.780500030517578125e+01 0.000000000000000000e+00 0.000000000000000000e+00 3.529999852180480957e-01 1.823999977111816406e+01 0.000000000000000000e+00 -2.210000008344650269e-01 3.599999845027923584e-02 1.757099914550781250e+01
1.847800064086914062e+01 0.000000000000000000e+00 0.000000000000000000e+00 3.670000135898590088e-01 1.893000030517578125e+01 0.000000000000000000e+00 -2.290000021457672119e-01 3.799999877810478210e-02 1.823500061035156250e+01
1.792499923706054688e+01 0.000000000000000000e+00 0.000000000000000000e+00 3.560000061988830566e-01 1.836300086975097656e+01 0.000000000000000000e+00 -2.220000028610229492e-01 3.700000047683715820e-02 1.768799972534179688e+01
1.833799934387207031e+01 0.000000000000000000e+00 0.000000000000000000e+00 3.639999926090240479e-01 1.878599929809570312e+01 0.000000000000000000e+00 -2.269999980926513672e-01 3.700000047683715820e-02 1.809600067138671875e+01
1.829700088500976562e+01 0.000000000000000000e+00 0.000000000000000000e+00 3.630000054836273193e-01 1.874399948120117188e+01 0.000000000000000000e+00 -2.269999980926513672e-01 3.700000047683715820e-02 1.805500030517578125e+01