-6.067210156250000000e+04
-6.065491796875000000e+04
-6.065380468750000000e+04
-6.065174609375000000e+04
-6.065100781250000000e+04
-6.065373828125000000e+04
-6.065341015625000000e+04
-6.064960937500000000e+04
-6.064725390625000000e+04
-6.064629687500000000e+04
-6.066139062500000000e+04
-6.064462500000000000e+04
-6.063925781250000000e+04
-6.063975781250000000e+04
-6.064073828125000000e+04
-6.063662109375000000e+04
-6.063584375000000000e+04
-6.063140625000000000e+04
-6.063095312500000000e+04
-6.063174218750000000e+04
-6.063059375000000000e+04
-6.063090234375000000e+04
-6.063146875000000000e+04
-6.062911328125000000e+04
-6.064097265625000000e+04
-6.063686718750000000e+04
-6.063514453125000000e+04
-6.063373046875000000e+04
-6.063357031250000000e+04
-6.063282031250000000e+04
-6.063300000000000000e+04
-6.062846875000000000e+04
-6.062961718750000000e+04
-6.062660156250000000e+04
-6.062886718750000000e+04
-6.063303906250000000e+04
-6.063581640625000000e+04
-6.063569531250000000e+04
-6.063621484375000000e+04
-6.063166406250000000e+04
-6.063243750000000000e+04
-6.067100000000000000e+04
-6.064915234375000000e+04
-6.064980859375000000e+04
-6.064816796875000000e+04
-6.064567578125000000e+04
-6.064434375000000000e+04
-6.065220312500000000e+04
-6.064669531250000000e+04
-6.064721875000000000e+04
-6.064823828125000000e+04
-6.064724609375000000e+04
-6.064905859375000000e+04
-6.064870703125000000e+04
-6.064062500000000000e+04
-6.064203515625000000e+04
-6.064697656250000000e+04
-6.063922265625000000e+04
-6.063228906250000000e+04
-6.062901562500000000e+04
-6.062759765625000000e+04
-6.062749218750000000e+04
-6.063094921875000000e+04
-6.063001171875000000e+04
-6.063048828125000000e+04
-6.063011328125000000e+04
-6.062979687500000000e+04
-6.062517578125000000e+04
-6.062426953125000000e+04
-6.062340234375000000e+04
-6.062860546875000000e+04
-6.062828515625000000e+04
-6.062319531250000000e+04
-6.065021484375000000e+04
-6.064362890625000000e+04
-6.064637109375000000e+04
-6.063394531250000000e+04
-6.062838671875000000e+04
-6.063211328125000000e+04
-6.062976562500000000e+04
-6.062858593750000000e+04
-6.063221484375000000e+04
-6.062887500000000000e+04
-6.063055859375000000e+04
-6.063211328125000000e+04
-6.063158593750000000e+04
-6.062979687500000000e+04
-6.067048437500000000e+04
-6.067026171875000000e+04
-6.065110937500000000e+04
-6.064986718750000000e+04
-6.065171875000000000e+04
-6.064120312500000000e+04
-6.063896484375000000e+04
-6.063459375000000000e+04
-6.063553515625000000e+04
-6.063661718750000000e+04
-6.063725000000000000e+04
-6.063592968750000000e+04
-6.063221484375000000e+04
-6.063341406250000000e+04
-6.063137500000000000e+04
-6.062808203125000000e+04
-6.062554296875000000e+04
-6.062757031250000000e+04
-6.062786718750000000e+04
-6.062827343750000000e+04
-6.062794140625000000e+04
-6.062506250000000000e+04
-6.062195703125000000e+04
-6.062497656250000000e+04
-6.062411718750000000e+04
-6.062469531250000000e+04
-6.062965234375000000e+04
-6.063988281250000000e+04
-6.064117578125000000e+04
-6.063242968750000000e+04
-6.063500781250000000e+04
-6.063337500000000000e+04
-6.063070703125000000e+04
-6.062764453125000000e+04
-6.062432031250000000e+04
-6.062653906250000000e+04
-6.063187500000000000e+04
-6.067120703125000000e+04
-6.067025390625000000e+04
-6.066932031250000000e+04
-6.067062500000000000e+04
-6.064695312500000000e+04
-6.066034765625000000e+04
-6.065241406250000000e+04
-6.064829296875000000e+04
-6.065248437500000000e+04
-6.065385546875000000e+04
-6.065210937500000000e+04
-6.065066796875000000e+04
-6.064634765625000000e+04
-6.064758984375000000e+04
-6.063762500000000000e+04
-6.064034375000000000e+04
-6.063347656250000000e+04
-6.063153515625000000e+04
-6.063389062500000000e+04
-6.063067578125000000e+04
-6.062798046875000000e+04
-6.062703515625000000e+04
-6.062678125000000000e+04
-6.062916796875000000e+04
-6.062989453125000000e+04
-6.063179687500000000e+04
-6.063389453125000000e+04
-6.062792187500000000e+04
-6.063099218750000000e+04
-6.062570312500000000e+04
-6.063933203125000000e+04
-6.063866406250000000e+04
-6.063358593750000000e+04
-6.063810937500000000e+04
-6.063666796875000000e+04
-6.063469140625000000e+04
-6.063146484375000000e+04
-6.062717968750000000e+04
-6.063133593750000000e+04
-6.062984375000000000e+04
-6.062864062500000000e+04
-6.062714062500000000e+04
-6.062607421875000000e+04
-6.062185937500000000e+04
-6.062550390625000000e+04
-6.062577734375000000e+04
-6.063091015625000000e+04
-6.063189843750000000e+04
-6.063179687500000000e+04
-6.063049609375000000e+04
-6.066837109375000000e+04
-6.066763671875000000e+04
-6.067005859375000000e+04
-6.066927734375000000e+04
-6.064894921875000000e+04
-6.064525390625000000e+04
-6.064797265625000000e+04
-6.064937109375000000e+04
-6.064924218750000000e+04
-6.064467968750000000e+04
-6.066264453125000000e+04
-6.065522656250000000e+04
-6.065574609375000000e+04
-6.064713671875000000e+04
-6.064764843750000000e+04
-6.064172656250000000e+04
-6.064032812500000000e+04
-6.064257421875000000e+04
-6.063993750000000000e+04
-6.063560937500000000e+04
-6.063283593750000000e+04
-6.063691796875000000e+04
-6.063360937500000000e+04
-6.062953125000000000e+04
-6.062975000000000000e+04
-6.065047265625000000e+04
-6.063424218750000000e+04
-6.063077343750000000e+04
-6.063322265625000000e+04
-6.063176171875000000e+04
-6.063037890625000000e+04
-6.063187500000000000e+04
-6.063191015625000000e+04
-6.063235546875000000e+04
-6.063758593750000000e+04
-6.067607812500000000e+04
-6.067166406250000000e+04
-6.066893750000000000e+04
-6.065530859375000000e+04
-6.065134765625000000e+04
-6.064938671875000000e+04
-6.064726562500000000e+04
-6.064767187500000000e+04
-6.065092578125000000e+04
-6.064732812500000000e+04
-6.064509375000000000e+04
-6.064755468750000000e+04
-6.064864062500000000e+04
-6.065139062500000000e+04
-6.064867187500000000e+04
-6.064728515625000000e+04
-6.064591015625000000e+04
-6.064728515625000000e+04
-6.064233593750000000e+04
-6.063660546875000000e+04
-6.063946875000000000e+04
-6.063896093750000000e+04
-6.063205859375000000e+04
-6.063541015625000000e+04
-6.063525781250000000e+04
-6.062916796875000000e+04
-6.062739843750000000e+04
-6.062778906250000000e+04
-6.062848437500000000e+04
-6.062443359375000000e+04
-6.062579296875000000e+04
-6.063154687500000000e+04
-6.062825000000000000e+04
-6.062499218750000000e+04
-6.062396484375000000e+04
-6.062614062500000000e+04
-6.063992968750000000e+04
-6.063207421875000000e+04
-6.063429296875000000e+04
-6.063479296875000000e+04
-6.063333593750000000e+04
-6.063064453125000000e+04
-6.063026171875000000e+04
-6.064799609375000000e+04
-6.065124609375000000e+04
-6.065013671875000000e+04
-6.065143359375000000e+04
-6.064844921875000000e+04
-6.064755468750000000e+04
-6.064844531250000000e+04
-6.064964062500000000e+04
-6.064825781250000000e+04
-6.064600781250000000e+04
-6.063078125000000000e+04
-6.063191796875000000e+04
-6.062985156250000000e+04
-6.062869531250000000e+04
-6.063107031250000000e+04
-6.062650390625000000e+04
-6.063336328125000000e+04
-6.063103906250000000e+04
-6.062425000000000000e+04
-6.062460546875000000e+04
-6.062342968750000000e+04
-6.062442187500000000e+04
-6.063158593750000000e+04
-6.062099609375000000e+04
-6.062726562500000000e+04
-6.063212890625000000e+04
-6.064354687500000000e+04
-6.063662109375000000e+04
-6.063430078125000000e+04
-6.063344140625000000e+04
-6.063589843750000000e+04
-6.063476171875000000e+04
-6.063923046875000000e+04
-6.063697265625000000e+04
-6.062998046875000000e+04
-6.062713281250000000e+04
-6.067289453125000000e+04
-6.066723046875000000e+04
-6.065091406250000000e+04
-6.064935156250000000e+04
-6.065067187500000000e+04
-6.064632031250000000e+04
-6.065060546875000000e+04
-6.064788281250000000e+04
-6.064325390625000000e+04
-6.064412500000000000e+04
-6.064128515625000000e+04
-6.063423828125000000e+04
-6.063724218750000000e+04
-6.063561718750000000e+04
-6.063351953125000000e+04
-6.063080859375000000e+04
-6.062839453125000000e+04
-6.063248437500000000e+04
-6.063098437500000000e+04
-6.062962890625000000e+04
-6.063440234375000000e+04
-6.062797656250000000e+04
-6.062479296875000000e+04
-6.062793359375000000e+04
-6.062911328125000000e+04
-6.062752734375000000e+04
-6.063943359375000000e+04
-6.063380859375000000e+04
-6.063306250000000000e+04
-6.063106640625000000e+04
-6.063595703125000000e+04
-6.063455078125000000e+04
-6.063153125000000000e+04
-6.062938671875000000e+04
-6.062935937500000000e+04
-6.067204687500000000e+04
-6.067089453125000000e+04
-6.064730859375000000e+04
-6.064655468750000000e+04
-6.064887109375000000e+04
-6.064992968750000000e+04
-6.065408593750000000e+04
-6.065491796875000000e+04
-6.065091406250000000e+04
-6.065174609375000000e+04
-6.064505859375000000e+04
-6.064507031250000000e+04
-6.064434765625000000e+04
-6.062553906250000000e+04
-6.062751953125000000e+04
-6.063078906250000000e+04
-6.063150390625000000e+04
-6.062523437500000000e+04
-6.063026171875000000e+04
-6.063394921875000000e+04
-6.062734375000000000e+04
-6.062957812500000000e+04
-6.063033203125000000e+04
-6.063029296875000000e+04
-6.063375390625000000e+04
-6.063028515625000000e+04
-6.062700000000000000e+04
-6.062655078125000000e+04
-6.062738671875000000e+04
-6.063580078125000000e+04
-6.062631250000000000e+04
-6.062659375000000000e+04
-6.062871875000000000e+04
-6.062932812500000000e+04
-6.063153906250000000e+04
-6.063508203125000000e+04
-6.063291406250000000e+04
-6.067191406250000000e+04
-6.065237890625000000e+04
-6.065023046875000000e+04
-6.064595703125000000e+04
-6.065319921875000000e+04
-6.065138671875000000e+04
-6.065144140625000000e+04
-6.064048828125000000e+04
-6.063400781250000000e+04
-6.063628906250000000e+04
-6.063408593750000000e+04
-6.063170312500000000e+04
-6.062712500000000000e+04
-6.062605468750000000e+04
-6.063018750000000000e+04
-6.062960156250000000e+04
-6.062874218750000000e+04
-6.062803125000000000e+04
-6.064892968750000000e+04
-6.064246875000000000e+04
-6.064073046875000000e+04
-6.064098046875000000e+04
-6.063113281250000000e+04
-6.063280468750000000e+04
-6.062693750000000000e+04
-6.063129296875000000e+04
-6.062912500000000000e+04
-6.062934765625000000e+04
-6.062704296875000000e+04
-6.062828515625000000e+04
-6.062873828125000000e+04
-6.062666406250000000e+04
-6.065307421875000000e+04
-6.065162109375000000e+04
-6.064749218750000000e+04
-6.064850781250000000e+04
-6.064835156250000000e+04
-6.064505859375000000e+04
-6.064885937500000000e+04
-6.064812500000000000e+04
-6.065626562500000000e+04
-6.064975781250000000e+04
-6.065239062500000000e+04
-6.064883593750000000e+04
-6.063733984375000000e+04
-6.063324218750000000e+04
-6.062959375000000000e+04
-6.063223046875000000e+04
-6.063005078125000000e+04
-6.063171093750000000e+04
-6.062960156250000000e+04
-6.062805468750000000e+04
-6.063301562500000000e+04
-6.063426953125000000e+04
-6.062987500000000000e+04
-6.063064453125000000e+04
-6.063032031250000000e+04
-6.066415625000000000e+04
-6.064129687500000000e+04
-6.063355859375000000e+04
-6.063583984375000000e+04
-6.063124609375000000e+04
-6.062909765625000000e+04
-6.062876953125000000e+04
-6.063241015625000000e+04
