-5.660238647460937500e+01 -2.033963203430175781e+00 -1.477194905281066895e+00 -2.033963203430175781e+00 -4.058908081054687500e+01 -5.257390499114990234e+00 -1.477194905281066895e+00 -5.257390499114990234e+00 -4.898628234863281250e+01
-4.563348388671875000e+01 -4.126958847045898438e+00 -7.856373786926269531e-01 -4.126958847045898438e+00 -3.679458999633789062e+01 1.186509609222412109e+01 -7.856373786926269531e-01 1.186509609222412109e+01 -3.750863265991210938e+01
-4.298165893554687500e+01 1.106128215789794922e+01 -1.033172893524169922e+01 1.106128215789794922e+01 -4.360841751098632812e+01 1.641979408264160156e+01 -1.033172893524169922e+01 1.641979408264160156e+01 -5.298636245727539062e+01
-6.759857940673828125e+01 4.400885105133056641e-01 -1.233732604980468750e+01 4.400885105133056641e-01 -6.299172210693359375e+01 1.033668518066406250e+01 -1.233732604980468750e+01 1.033668518066406250e+01 -4.679766845703125000e+01
-8.802550506591796875e+01 -1.359694838523864746e+00 8.411171913146972656e+00 -1.359694838523864746e+00 -6.756633758544921875e+01 -8.636523485183715820e-01 8.411171913146972656e+00 -8.636523485183715820e-01 -5.671467971801757812e+01
-5.271971511840820312e+01 -4.839075565338134766e+00 -8.774065971374511719e+00 -4.839075565338134766e+00 -4.481561279296875000e+01 -3.980220317840576172e+00 -8.774065971374511719e+00 -3.980220317840576172e+00 -3.132008171081542969e+01
-3.683266448974609375e+01 9.909241676330566406e+00 -3.096949100494384766e+00 9.909241676330566406e+00 -3.329562759399414062e+01 -4.931466102600097656e+00 -3.096949100494384766e+00 -4.931466102600097656e+00 -3.046684455871582031e+01
-3.246402740478515625e+01 3.432615756988525391e+00 -8.711186408996582031e+00 3.432615756988525391e+00 -4.838220596313476562e+01 1.251724243164062500e+01 -8.711186408996582031e+00 1.251724243164062500e+01 -2.423242759704589844e+01
-3.930002975463867188e+01 -9.132318496704101562e+00 -6.580781936645507812e+00 -9.132318496704101562e+00 -5.184000015258789062e+01 1.165047836303710938e+01 -6.580781936645507812e+00 1.165047836303710938e+01 -4.307601928710937500e+01
-4.079195022583007812e+01 -1.057649803161621094e+01 -4.172780513763427734e+00 -1.057649803161621094e+01 -3.247760295867919922e+00 -2.586001157760620117e+00 -4.172780513763427734e+00 -2.586001157760620117e+00 -3.972608947753906250e+01
-8.729647064208984375e+01 1.184337043762207031e+01 -1.405445766448974609e+01 1.184337043762207031e+01 -5.082488250732421875e+01 9.311998367309570312e+00 -1.405445766448974609e+01 9.311998367309570312e+00 -3.569802856445312500e+01
-8.065242767333984375e+01 -4.188392460346221924e-01 -1.804471206665039062e+01 -4.188392460346221924e-01 -3.137503242492675781e+01 -1.368937110900878906e+01 -1.804471206665039062e+01 -1.368937110900878906e+01 -5.340420913696289062e+01
-5.444467544555664062e+01 -2.643784284591674805e+00 -1.592831420898437500e+01 -2.643784284591674805e+00 -6.387876510620117188e+01 3.575196504592895508e+00 -1.592831420898437500e+01 3.575196504592895508e+00 -6.204959106445312500e+01
-4.185198593139648438e+01 -2.659554719924926758e+00 4.886206150054931641e+00 -2.659554719924926758e+00 -3.835142898559570312e+01 -1.358807468414306641e+01 4.886206150054931641e+00 -1.358807468414306641e+01 -3.525186538696289062e+01
-5.253374481201171875e+01 -2.137773036956787109e+00 -4.624700546264648438e+00 -2.137773036956787109e+00 -8.047473907470703125e+01 -1.632334518432617188e+01 -4.624700546264648438e+00 -1.632334518432617188e+01 -5.119717025756835938e+01
-4.340671157836914062e+01 9.399473190307617188e+00 3.888861656188964844e+00 9.399473190307617188e+00 -4.249761581420898438e+01 -2.888151645660400391e+00 3.888861656188964844e+00 -2.888151645660400391e+00 -5.988854598999023438e+01
-4.484929275512695312e+01 4.546947002410888672e+00 1.884929466247558594e+01 4.546947002410888672e+00 -2.152797889709472656e+01 -6.673421859741210938e-01 1.884929466247558594e+01 -6.673421859741210938e-01 -3.774742126464843750e+01
-7.087963867187500000e+01 -9.818454742431640625e+00 1.550481033325195312e+01 -9.818454742431640625e+00 -4.329477691650390625e+01 -3.566731214523315430e+00 1.550481033325195312e+01 -3.566731214523315430e+00 -5.308116149902343750e+01
-9.824104309082031250e+00 -8.404998779296875000e+00 -7.950625419616699219e+00 -8.404998779296875000e+00 -3.747525024414062500e+01 -8.284770011901855469e+00 -7.950625419616699219e+00 -8.284770011901855469e+00 -3.838578796386718750e+01
-4.812646484375000000e+01 -5.881695747375488281e-01 -8.369164466857910156e+00 -5.881695747375488281e-01 -6.538454437255859375e+01 -5.597772598266601562e+00 -8.369164466857910156e+00 -5.597772598266601562e+00 -3.819953536987304688e+01
-4.196255874633789062e+01 8.426719665527343750e+00 2.044399023056030273e+00 8.426719665527343750e+00 -4.831288909912109375e+01 8.469427108764648438e+00 2.044399023056030273e+00 8.469427108764648438e+00 -5.596009063720703125e+01
-3.691001892089843750e+01 -8.611468315124511719e+00 3.580026865005493164e+00 -8.611468315124511719e+00 -5.697937393188476562e+01 -1.689574432373046875e+01 3.580026865005493164e+00 -1.689574432373046875e+01 -4.641772460937500000e+01
-3.794344329833984375e+01 4.693086624145507812e+00 8.343820571899414062e+00 4.693086624145507812e+00 -7.549026489257812500e+01 1.925348043441772461e+00 8.343820571899414062e+00 1.925348043441772461e+00 -6.394440460205078125e+01
-7.322098541259765625e+01 1.788739919662475586e+00 -1.778906631469726562e+01 1.788739919662475586e+00 -4.407891082763671875e+01 4.300953865051269531e+00 -1.778906631469726562e+01 4.300953865051269531e+00 -5.393637847900390625e+01
-2.907943344116210938e+01 -1.823408508300781250e+01 1.010056400299072266e+01 -1.823408508300781250e+01 -4.399406433105468750e+01 -5.966372966766357422e+00 1.010056400299072266e+01 -5.966372966766357422e+00 -3.983211898803710938e+01
-5.469496536254882812e+01 -2.014409255981445312e+01 5.527067184448242188e+00 -2.014409255981445312e+01 -7.984445953369140625e+01 -9.143150448799133301e-01 5.527067184448242188e+00 -9.143150448799133301e-01 -5.956208419799804688e+01
-6.872198486328125000e+01 -9.601776123046875000e+00 -6.355000972747802734e+00 -9.601776123046875000e+00 -4.655461883544921875e+01 -1.788840484619140625e+01 -6.355000972747802734e+00 -1.788840484619140625e+01 -4.212233352661132812e+01
-6.290459060668945312e+01 2.639022827148437500e+00 1.041383838653564453e+01 2.639022827148437500e+00 -3.312314605712890625e+01 -4.299494743347167969e+00 1.041383838653564453e+01 -4.299494743347167969e+00 -4.062174606323242188e+01
-5.152185821533203125e+01 -1.169756698608398438e+01 -4.453321456909179688e+00 -1.169756698608398438e+01 -5.328349304199218750e+01 4.921885967254638672e+00 -4.453321456909179688e+00 4.921885967254638672e+00 -5.327710723876953125e+01
-5.456320953369140625e+01 6.681238174438476562e+00 -1.522682285308837891e+01 6.681238174438476562e+00 -6.262224960327148438e+01 6.997053623199462891e-01 -1.522682285308837891e+01 6.997053623199462891e-01 -4.167348098754882812e+01
-6.330862045288085938e+01 1.701027750968933105e+00 -1.794594383239746094e+01 1.701027750968933105e+00 -4.996271896362304688e+01 1.081700134277343750e+01 -1.794594383239746094e+01 1.081700134277343750e+01 -3.861868286132812500e+01
-3.273337554931640625e+01 1.285370111465454102e+00 -1.509742259979248047e+01 1.285370111465454102e+00 -5.193429946899414062e+01 -6.598139762878417969e+00 -1.509742259979248047e+01 -6.598139762878417969e+00 -2.792030525207519531e+01
-3.770673751831054688e+01 8.000470161437988281e+00 -4.746360778808593750e+00 8.000470161437988281e+00 -4.294269180297851562e+01 -9.819168090820312500e+00 -4.746360778808593750e+00 -9.819168090820312500e+00 -8.181848907470703125e+01
-5.696970748901367188e+01 1.484167456626892090e+00 -2.045526355504989624e-01 1.484167456626892090e+00 -5.919069290161132812e+01 -1.443230533599853516e+01 -2.045526355504989624e-01 -1.443230533599853516e+01 -5.384979629516601562e+01
-3.084959983825683594e+01 8.423140645027160645e-01 -2.868824958801269531e+00 8.423140645027160645e-01 -2.986367225646972656e+01 1.842080593109130859e+00 -2.868824958801269531e+00 1.842080593109130859e+00 -5.192737197875976562e+01
-5.141854858398437500e+01 -1.159785652160644531e+01 -1.183588695526123047e+01 -1.159785652160644531e+01 -1.755947494506835938e+01 -2.528027915954589844e+01 -1.183588695526123047e+01 -2.528027915954589844e+01 -2.501169967651367188e+01
-3.043893623352050781e+01 -5.086316108703613281e+00 7.648330688476562500e+00 -5.086316108703613281e+00 -5.587654876708984375e+01 -5.773694992065429688e+00 7.648330688476562500e+00 -5.773694992065429688e+00 -6.860725402832031250e+01
-5.858504486083984375e+01 1.785290390253067017e-01 1.857163810729980469e+01 1.785290390253067017e-01 -6.617008209228515625e+01 -7.756847858428955078e+00 1.857163810729980469e+01 -7.756847858428955078e+00 -6.264976882934570312e+01
-6.428838348388671875e+01 1.525509655475616455e-01 9.226131439208984375e+00 1.525509655475616455e-01 -5.074616622924804688e+01 -1.971759033203125000e+01 9.226131439208984375e+00 -1.971759033203125000e+01 -4.666936492919921875e+01
-3.317755889892578125e+01 -4.186116695404052734e+00 6.993515014648437500e+00 -4.186116695404052734e+00 -7.629905700683593750e+01 -1.051571178436279297e+01 6.993515014648437500e+00 -1.051571178436279297e+01 -5.659016036987304688e+01
-4.719580078125000000e+01 -9.717217445373535156e+00 -1.273261737823486328e+01 -9.717217445373535156e+00 -3.647297668457031250e+01 -1.234047532081604004e+00 -1.273261737823486328e+01 -1.234047532081604004e+00 -3.051495933532714844e+01
-3.945153045654296875e+01 4.363973140716552734e+00 -8.767167925834655762e-01 4.363973140716552734e+00 -4.385337829589843750e+01 2.483803272247314453e+00 -8.767167925834655762e-01 2.483803272247314453e+00 -3.069536590576171875e+01
-4.296488189697265625e+01 -7.152069091796875000e+00 -1.566533756256103516e+01 -7.152069091796875000e+00 -6.244561386108398438e+01 -4.081802368164062500e+00 -1.566533756256103516e+01 -4.081802368164062500e+00 -7.496192932128906250e+01
-5.105076217651367188e+01 7.125496387481689453e+00 -2.006921768188476562e+00 7.125496387481689453e+00 -8.429329681396484375e+01 5.916862487792968750e+00 -2.006921768188476562e+00 5.916862487792968750e+00 -6.239287948608398438e+01
-4.975812911987304688e+01 -9.930390357971191406e+00 1.152360725402832031e+01 -9.930390357971191406e+00 -1.162773609161376953e+01 -2.819517850875854492e+00 1.152360725402832031e+01 -2.819517850875854492e+00 -2.068295478820800781e+01
-6.724982452392578125e+01 -1.837246704101562500e+01 -3.679434299468994141e+00 -1.837246704101562500e+01 -4.608136367797851562e+01 3.294238567352294922e+00 -3.679434299468994141e+00 3.294238567352294922e+00 -3.179297637939453125e+01
-4.008847427368164062e+01 -9.863006591796875000e+00 6.313525199890136719e+00 -9.863006591796875000e+00 -4.414744186401367188e+01 -4.544198036193847656e+00 6.313525199890136719e+00 -4.544198036193847656e+00 -2.014848136901855469e+01
-5.657876205444335938e+01 -8.705517649650573730e-01 -3.723136663436889648e+00 -8.705517649650573730e-01 -2.806902503967285156e+01 -3.252434492111206055e+00 -3.723136663436889648e+00 -3.252434492111206055e+00 -9.497112274169921875e+01
-4.928503799438476562e+01 4.653343677520751953e+00 -1.855761146545410156e+01 4.653343677520751953e+00 -8.066134643554687500e+01 -9.040660858154296875e+00 -1.855761146545410156e+01 -9.040660858154296875e+00 -4.982897186279296875e+01
-7.686894226074218750e+01 7.457893490791320801e-01 -2.576273202896118164e+00 7.457893490791320801e-01 -8.166489410400390625e+01 2.073917627334594727e+00 -2.576273202896118164e+00 2.073917627334594727e+00 -6.883895874023437500e+01
-4.189684677124023438e+01 3.182715415954589844e+00 -7.104810714721679688e+00 3.182715415954589844e+00 -5.169781494140625000e+01 1.500395774841308594e+01 -7.104810714721679688e+00 1.500395774841308594e+01 -3.790216827392578125e+01
-6.572818756103515625e+01 -5.986420631408691406e+00 1.150679206848144531e+01 -5.986420631408691406e+00 -3.343666458129882812e+01 -8.132473826408386230e-01 1.150679206848144531e+01 -8.132473826408386230e-01 -3.984702301025390625e+01
-7.264395904541015625e+01 1.122399044036865234e+01 1.272855949401855469e+01 1.122399044036865234e+01 -4.467232131958007812e+01 -1.199197769165039062e+01 1.272855949401855469e+01 -1.199197769165039062e+01 -5.089362716674804688e+01
-4.069556045532226562e+01 7.556957602500915527e-01 -2.627665042877197266e+00 7.556957602500915527e-01 -7.855620574951171875e+01 1.544596862792968750e+01 -2.627665042877197266e+00 1.544596862792968750e+01 -3.903584671020507812e+01
-3.097319221496582031e+01 1.323195099830627441e+00 1.225907230377197266e+01 1.323195099830627441e+00 -3.649178314208984375e+01 3.312192201614379883e+00 1.225907230377197266e+01 3.312192201614379883e+00 -4.076515960693359375e+01
-3.115235328674316406e+01 -5.996971130371093750e+00 1.758826446533203125e+01 -5.996971130371093750e+00 -4.142094421386718750e+01 9.731379508972167969e+00 1.758826446533203125e+01 9.731379508972167969e+00 -3.326590347290039062e+01
-4.477810668945312500e+01 8.124764561653137207e-01 2.056178665161132812e+01 8.124764561653137207e-01 -7.858169555664062500e+01 -6.919361352920532227e-01 2.056178665161132812e+01 -6.919361352920532227e-01 -3.303609848022460938e+01
-7.563012695312500000e+01 1.391296482086181641e+01 -1.976618194580078125e+01 1.391296482086181641e+01 -8.129709625244140625e+01 1.090938377380371094e+01 -1.976618194580078125e+01 1.090938377380371094e+01 -5.826456451416015625e+01
-7.139259338378906250e+01 2.235339164733886719e+01 9.746335029602050781e+00 2.235339164733886719e+01 -3.851853179931640625e+01 1.634634256362915039e+00 9.746335029602050781e+00 1.634634256362915039e+00 -4.303844451904296875e+01
-2.972064018249511719e+01 -1.665403938293457031e+01 1.567383670806884766e+01 -1.665403938293457031e+01 -3.650385665893554688e+01 -1.192441463470458984e+01 1.567383670806884766e+01 -1.192441463470458984e+01 -5.071471786499023438e+01
-5.206486892700195312e+01 -1.980579566955566406e+01 1.350307178497314453e+01 -1.980579566955566406e+01 -6.106923294067382812e+01 -7.422227859497070312e+00 1.350307178497314453e+01 -7.422227859497070312e+00 -6.482976531982421875e+01
-2.993935775756835938e+01 -1.411839103698730469e+01 -2.255573749542236328e+00 -1.411839103698730469e+01 -6.348267364501953125e+01 8.785302162170410156e+00 -2.255573749542236328e+00 8.785302162170410156e+00 -3.610899353027343750e+01
-7.105851745605468750e+01 -2.892257308959960938e+01 6.196250438690185547e+00 -2.892257308959960938e+01 -4.040864562988281250e+01 1.108519458770751953e+01 6.196250438690185547e+00 1.108519458770751953e+01 -6.053971862792968750e+01
-5.016279220581054688e+01 -9.812259674072265625e+00 1.188018679618835449e+00 -9.812259674072265625e+00 -4.876669311523437500e+01 3.775937318801879883e+00 1.188018679618835449e+00 3.775937318801879883e+00 -4.602682113647460938e+01
-4.878659439086914062e+01 -2.030549049377441406e+00 -1.265222668647766113e+00 -2.030549049377441406e+00 -2.614773178100585938e+01 -2.765824079513549805e+00 -1.265222668647766113e+00 -2.765824079513549805e+00 -5.370502853393554688e+01
-4.060408020019531250e+01 -8.540916442871093750e+00 6.659079551696777344e+00 -8.540916442871093750e+00 -6.131225585937500000e+01 -1.482895851135253906e+01 6.659079551696777344e+00 -1.482895851135253906e+01 -7.686072540283203125e+01
-3.728976821899414062e+01 -8.696455955505371094e+00 5.413834095001220703e+00 -8.696455955505371094e+00 -5.067597198486328125e+01 -1.188252449035644531e+01 5.413834095001220703e+00 -1.188252449035644531e+01 -5.017519760131835938e+01
-6.591834259033203125e+01 -1.322731018066406250e+01 4.585752487182617188e+00 -1.322731018066406250e+01 -5.977783203125000000e+01 8.513495445251464844e+00 4.585752487182617188e+00 8.513495445251464844e+00 -5.208456802368164062e+01
-1.159957504272460938e+01 1.098681211471557617e+00 1.702839279174804688e+01 1.098681211471557617e+00 -6.195759582519531250e+01 -9.590659141540527344e+00 1.702839279174804688e+01 -9.590659141540527344e+00 -5.125066375732421875e+01
-5.030804443359375000e+01 1.651050758361816406e+01 5.513978481292724609e+00 1.651050758361816406e+01 -5.562189483642578125e+01 -3.702101707458496094e+00 5.513978481292724609e+00 -3.702101707458496094e+00 -4.902138137817382812e+01
-3.304973983764648438e+01 -6.306645870208740234e+00 -4.781097412109375000e+00 -6.306645870208740234e+00 -4.685132980346679688e+01 -1.419404029846191406e+01 -4.781097412109375000e+00 -1.419404029846191406e+01 -4.531630325317382812e+01
-1.618470954895019531e+01 -2.791224718093872070e+00 -2.292010545730590820e+00 -2.791224718093872070e+00 -6.132184219360351562e+01 -1.126446819305419922e+01 -2.292010545730590820e+00 -1.126446819305419922e+01 -5.559684371948242188e+01
-5.974429702758789062e+01 -3.151595830917358398e+00 1.790575385093688965e+00 -3.151595830917358398e+00 -6.223613357543945312e+01 -4.785379886627197266e+00 1.790575385093688965e+00 -4.785379886627197266e+00 -5.509724426269531250e+01
-5.932923507690429688e+01 -1.333025836944580078e+01 -2.809177398681640625e+00 -1.333025836944580078e+01 -6.827159881591796875e+01 -1.500277370214462280e-01 -2.809177398681640625e+00 -1.500277370214462280e-01 -4.833544158935546875e+01
-5.933771514892578125e+01 -3.534828424453735352e+00 -2.562741994857788086e+00 -3.534828424453735352e+00 -6.079151153564453125e+01 -5.774520039558410645e-01 -2.562741994857788086e+00 -5.774520039558410645e-01 -5.843148422241210938e+01
-7.702251434326171875e+01 -6.914821624755859375e+00 -1.025825691223144531e+01 -6.914821624755859375e+00 -5.056379318237304688e+01 -5.311288833618164062e+00 -1.025825691223144531e+01 -5.311288833618164062e+00 -3.892896652221679688e+01
-5.775079345703125000e+01 -1.107334423065185547e+01 9.768750190734863281e+00 -1.107334423065185547e+01 -5.743470001220703125e+01 1.416578102111816406e+01 9.768750190734863281e+00 1.416578102111816406e+01 -4.247555541992187500e+01
-3.122692108154296875e+01 -9.481903076171875000e+00 1.364585208892822266e+01 -9.481903076171875000e+00 -3.311894226074218750e+01 -7.690659761428833008e-01 1.364585208892822266e+01 -7.690659761428833008e-01 -3.995788574218750000e+01
-6.041665649414062500e+01 -2.175130128860473633e+00 9.119991660118103027e-01 -2.175130128860473633e+00 -5.152625274658203125e+01 -3.593867301940917969e+00 9.119991660118103027e-01 -3.593867301940917969e+00 -3.988878631591796875e+01
-2.512251091003417969e+01 -2.684807014465332031e+01 2.830848693847656250e+00 -2.684807014465332031e+01 -5.999917984008789062e+01 5.920627593994140625e+00 2.830848693847656250e+00 5.920627593994140625e+00 -3.086908531188964844e+01
-1.678743171691894531e+01 4.913061141967773438e+00 1.563090920448303223e+00 4.913061141967773438e+00 -2.618670845031738281e+01 -3.591715574264526367e+00 1.563090920448303223e+00 -3.591715574264526367e+00 -6.139014816284179688e+01
-3.384551620483398438e+01 2.322760343551635742e+00 9.908095359802246094e+00 2.322760343551635742e+00 -5.169666290283203125e+01 -9.147727012634277344e+00 9.908095359802246094e+00 -9.147727012634277344e+00 -4.208095550537109375e+01
-4.501955795288085938e+01 -4.071083068847656250e+00 -2.183241653442382812e+01 -4.071083068847656250e+00 -4.822043228149414062e+01 -1.245226955413818359e+01 -2.183241653442382812e+01 -1.245226955413818359e+01 -6.624284362792968750e+01
-5.852082824707031250e+01 6.630202293395996094e+00 -8.773981928825378418e-01 6.630202293395996094e+00 -6.151197814941406250e+01 -1.483868885040283203e+01 -8.773981928825378418e-01 -1.483868885040283203e+01 -6.338566207885742188e+01
-4.532145309448242188e+01 3.365593910217285156e+00 -4.460163116455078125e+00 3.365593910217285156e+00 -3.353093338012695312e+01 -1.274819183349609375e+01 -4.460163116455078125e+00 -1.274819183349609375e+01 -4.120977401733398438e+01
-5.677370452880859375e+01 2.070221662521362305e+00 -4.172925949096679688e+00 2.070221662521362305e+00 -3.846992111206054688e+01 9.917599678039550781e+00 -4.172925949096679688e+00 9.917599678039550781e+00 -3.514246749877929688e+01
-6.747824859619140625e+01 2.889188766479492188e+00 1.362641453742980957e-01 2.889188766479492188e+00 -5.046589660644531250e+01 -1.406220340728759766e+01 1.362641453742980957e-01 -1.406220340728759766e+01 -8.488921356201171875e+01
-4.278055953979492188e+01 -1.218826413154602051e+00 -8.364865303039550781e+00 -1.218826413154602051e+00 -2.069751167297363281e+01 -2.365460157394409180e+00 -8.364865303039550781e+00 -2.365460157394409180e+00 -2.474601173400878906e+01
-7.074520874023437500e+01 6.384280681610107422e+00 6.565154075622558594e+00 6.384280681610107422e+00 -5.776638412475585938e+01 -3.924968481063842773e+00 6.565154075622558594e+00 -3.924968481063842773e+00 -3.145004081726074219e+01
-2.732911682128906250e+01 2.598552465438842773e+00 1.224253892898559570e+00 2.598552465438842773e+00 -2.525592231750488281e+01 3.688644170761108398e+00 1.224253892898559570e+00 3.688644170761108398e+00 -1.695962715148925781e+01
-5.592015838623046875e+01 6.929788589477539062e+00 8.180012702941894531e-01 6.929788589477539062e+00 -4.587551116943359375e+01 2.552764415740966797e+00 8.180012702941894531e-01 2.552764415740966797e+00 -5.147780227661132812e+01
-6.788800048828125000e+01 -6.084803342819213867e-01 -4.182853698730468750e+00 -6.084803342819213867e-01 -4.367417144775390625e+01 1.188616180419921875e+01 -4.182853698730468750e+00 1.188616180419921875e+01 -5.020249557495117188e+01
-6.349523544311523438e+01 9.758193016052246094e+00 -1.947171783447265625e+01 9.758193016052246094e+00 -3.538749313354492188e+01 3.579919040203094482e-01 -1.947171783447265625e+01 3.579919040203094482e-01 -6.391251373291015625e+01
-3.290543365478515625e+01 -1.942087054252624512e+00 -2.390225410461425781e+01 -1.942087054252624512e+00 -3.556426239013671875e+01 -1.332619190216064453e+01 -2.390225410461425781e+01 -1.332619190216064453e+01 -4.659931564331054688e+01
-6.414881896972656250e+01 -1.673744964599609375e+01 -1.070996761322021484e+01 -1.673744964599609375e+01 -3.512738418579101562e+01 -7.824841499328613281e+00 -1.070996761322021484e+01 -7.824841499328613281e+00 -8.239855194091796875e+01
-3.505902099609375000e+01 1.514552783966064453e+01 -1.236998844146728516e+01 1.514552783966064453e+01 -6.400298309326171875e+01 1.005305099487304688e+01 -1.236998844146728516e+01 1.005305099487304688e+01 -5.639181900024414062e+01
-7.401471710205078125e+01 -7.624258995056152344e+00 6.987309455871582031e-01 -7.624258995056152344e+00 -5.453718185424804688e+01 -2.198600769042968750e-01 6.987309455871582031e-01 -2.198600769042968750e-01 -6.437332916259765625e+01
-4.370985794067382812e+01 -1.690881729125976562e+01 2.797082901000976562e+00 -1.690881729125976562e+01 -5.319131469726562500e+01 -1.101935207843780518e-01 2.797082901000976562e+00 -1.101935207843780518e-01 -3.186365509033203125e+01
-5.023833465576171875e+01 -4.808366298675537109e-01 7.559979915618896484e+00 -4.808366298675537109e-01 -6.239109802246093750e+01 7.647230625152587891e-01 7.559979915618896484e+00 7.647230625152587891e-01 -5.512894439697265625e+01
-2.658744812011718750e+01 -4.177127838134765625e+01 6.202015876770019531e+00 -4.177127838134765625e+01 -2.095936203002929688e+01 1.556859207153320312e+01 6.202015876770019531e+00 1.556859207153320312e+01 -3.334413909912109375e+01
-5.608036041259765625e+01 9.485171318054199219e+00 -1.743945312500000000e+01 9.485171318054199219e+00 -5.515625762939453125e+01 1.116732716560363770e+00 -1.743945312500000000e+01 1.116732716560363770e+00 -5.846179962158203125e+01
-6.344890594482421875e+01 -1.554000759124755859e+01 -1.454420948028564453e+01 -1.554000759124755859e+01 -5.631905364990234375e+01 1.322208023071289062e+01 -1.454420948028564453e+01 1.322208023071289062e+01 -1.954835700988769531e+01
-7.496611785888671875e+01 -3.422003984451293945e+00 1.250939750671386719e+01 -3.422003984451293945e+00 -4.379133224487304688e+01 4.366979122161865234e+00 1.250939750671386719e+01 4.366979122161865234e+00 -6.660533142089843750e+01
-3.278701782226562500e+01 -9.876272201538085938e+00 -9.251942634582519531e+00 -9.876272201538085938e+00 -6.622758483886718750e+01 1.611100196838378906e+01 -9.251942634582519531e+00 1.611100196838378906e+01 -3.982656478881835938e+01
-2.662696075439453125e+01 1.934698104858398438e+01 -2.513704109191894531e+01 1.934698104858398438e+01 -4.537742614746093750e+01 1.211338710784912109e+01 -2.513704109191894531e+01 1.211338710784912109e+01 -4.655241775512695312e+01
-1.831287193298339844e+01 7.919209480285644531e+00 -7.606962680816650391e+00 7.919209480285644531e+00 -5.469734954833984375e+01 -7.496434450149536133e-01 -7.606962680816650391e+00 -7.496434450149536133e-01 -6.608492279052734375e+01
-3.379076766967773438e+01 3.319860935211181641e+00 -5.048932552337646484e+00 3.319860935211181641e+00 -1.860212326049804688e+01 1.816106224060058594e+01 -5.048932552337646484e+00 1.816106224060058594e+01 -3.313877487182617188e+01
-1.387312221527099609e+01 1.517947292327880859e+01 -4.612448215484619141e+00 1.517947292327880859e+01 -6.325187683105468750e+01 1.705342674255371094e+01 -4.612448215484619141e+00 1.705342674255371094e+01 -3.781032180786132812e+01
-6.467292785644531250e+01 7.650139331817626953e+00 5.961002349853515625e+00 7.650139331817626953e+00 -9.591275024414062500e+01 1.120392227172851562e+01 5.961002349853515625e+00 1.120392227172851562e+01 -7.179656219482421875e+01
-5.255996704101562500e+01 3.221688747406005859e+00 -9.077316284179687500e+00 3.221688747406005859e+00 -3.427182006835937500e+01 -1.290166854858398438e+01 -9.077316284179687500e+00 -1.290166854858398438e+01 -8.694120025634765625e+01
-3.955551910400390625e+01 1.697873306274414062e+01 -8.933406829833984375e+00 1.697873306274414062e+01 -1.782650756835937500e+01 5.102544784545898438e+00 -8.933406829833984375e+00 5.102544784545898438e+00 -5.387816619873046875e+01
-2.144916534423828125e+01 3.289369583129882812e+00 -4.433943629264831543e-01 3.289369583129882812e+00 -2.979336738586425781e+01 -1.695684242248535156e+01 -4.433943629264831543e-01 -1.695684242248535156e+01 -3.055196952819824219e+01
-3.713315582275390625e+01 -8.656584739685058594e+00 -1.178996276855468750e+01 -8.656584739685058594e+00 -3.922849273681640625e+01 7.787490844726562500e+00 -1.178996276855468750e+01 7.787490844726562500e+00 -3.029788780212402344e+01
-6.347849273681640625e+01 -4.976513385772705078e+00 -1.146493339538574219e+01 -4.976513385772705078e+00 -6.263621902465820312e+01 6.153366565704345703e+00 -1.146493339538574219e+01 6.153366565704345703e+00 -7.315581512451171875e+01
-6.461103057861328125e+01 5.376927852630615234e+00 -4.652649879455566406e+00 5.376927852630615234e+00 -3.655482101440429688e+01 -3.364284038543701172e-01 -4.652649879455566406e+00 -3.364284038543701172e-01 -1.321988201141357422e+01
-7.179765319824218750e+01 4.376093447208404541e-01 -6.805452823638916016e+00 4.376093447208404541e-01 -6.607047271728515625e+01 3.581244707107543945e+00 -6.805452823638916016e+00 3.581244707107543945e+00 -2.028229141235351562e+01
-3.277957153320312500e+01 -2.075924634933471680e+00 -2.352334022521972656e+00 -2.075924634933471680e+00 -5.106977081298828125e+01 -5.204195022583007812e+00 -2.352334022521972656e+00 -5.204195022583007812e+00 -2.768264579772949219e+01
-4.496172332763671875e+01 -1.263495802879333496e+00 -7.181379318237304688e+00 -1.263495802879333496e+00 -2.572167587280273438e+01 -5.862394332885742188e+00 -7.181379318237304688e+00 -5.862394332885742188e+00 -5.423461151123046875e+01
-3.998656845092773438e+01 3.729555368423461914e+00 9.689680099487304688e+00 3.729555368423461914e+00 -8.853946685791015625e+01 -3.748957872390747070e+00 9.689680099487304688e+00 -3.748957872390747070e+00 -5.318668746948242188e+01
-5.573616790771484375e+01 -8.922093391418457031e+00 2.736810445785522461e+00 -8.922093391418457031e+00 -7.333613586425781250e+01 1.944158363342285156e+01 2.736810445785522461e+00 1.944158363342285156e+01 -4.478541564941406250e+01
-5.702238464355468750e+01 1.126867198944091797e+01 5.455217361450195312e+00 1.126867198944091797e+01 -4.761697006225585938e+01 -1.349290847778320312e+01 5.455217361450195312e+00 -1.349290847778320312e+01 -4.742654800415039062e+01
-4.138567352294921875e+01 -1.129762458801269531e+01 8.511271476745605469e+00 -1.129762458801269531e+01 -5.650093078613281250e+01 9.810496330261230469e+00 8.511271476745605469e+00 9.810496330261230469e+00 -1.982501983642578125e+01
-5.989278411865234375e+01 -1.399221992492675781e+01 4.845683097839355469e+00 -1.399221992492675781e+01 -6.664773559570312500e+01 3.300624608993530273e+00 4.845683097839355469e+00 3.300624608993530273e+00 -6.496361541748046875e+01
-6.826863098144531250e+01 -1.132310867309570312e+01 -2.835287570953369141e+00 -1.132310867309570312e+01 -4.091405487060546875e+01 1.213738441467285156e+01 -2.835287570953369141e+00 1.213738441467285156e+01 -5.293156814575195312e+01
-6.266749191284179688e+01 5.354969501495361328e+00 -9.786931991577148438e+00 5.354969501495361328e+00 -3.585501098632812500e+01 5.871908664703369141e+00 -9.786931991577148438e+00 5.871908664703369141e+00 -4.499248886108398438e+01
-7.610020446777343750e+01 -8.016622543334960938e+00 -2.488486480712890625e+01 -8.016622543334960938e+00 -2.904225921630859375e+01 7.234238147735595703e+00 -2.488486480712890625e+01 7.234238147735595703e+00 -3.728216934204101562e+01
-4.810639953613281250e+01 7.921632766723632812e+00 -1.001024627685546875e+01 7.921632766723632812e+00 -2.954012298583984375e+01 5.222028255462646484e+00 -1.001024627685546875e+01 5.222028255462646484e+00 -1.908412361145019531e+01
-5.202728652954101562e+01 6.727670669555664062e+00 -1.066060733795166016e+01 6.727670669555664062e+00 -5.268208312988281250e+01 2.788879871368408203e+00 -1.066060733795166016e+01 2.788879871368408203e+00 -4.983184051513671875e+01
-5.313579940795898438e+01 1.180708503723144531e+01 -2.249106168746948242e+00 1.180708503723144531e+01 -5.055330657958984375e+01 -1.294247746467590332e+00 -2.249106168746948242e+00 -1.294247746467590332e+00 -4.440466308593750000e+01