1.772500038146972656e+01 0.000000000000000000e+00 0.000000000000000000e+00 -1.539999991655349731e-01 1.828700065612792969e+01 0.000000000000000000e+00 7.800000160932540894e-02 9.499999880790710449e-02 1.826799964904785156e+01
1.739699935913085938e+01 0.000000000000000000e+00 0.000000000000000000e+00 -1.509999930858612061e-01 1.794899940490722656e+01 0.000000000000000000e+00 7.599999755620956421e-02 9.300000220537185669e-02 1.793000030517578125e+01
1.751600074768066406e+01 0.000000000000000000e+00 0.000000000000000000e+00 -1.519999951124191284e-01 1.807200050354003906e+01 0.000000000000000000e+00 7.699999958276748657e-02 9.399999678134918213e-02 1.805299949645996094e+01
1.754500007629394531e+01 0.000000000000000000e+00 0.000000000000000000e+00 -1.519999951124191284e-01 1.810099983215332031e+01 0.000000000000000000e+00 7.699999958276748657e-02 9.399999678134918213e-02 1.808300018310546875e+01
1.756399917602539062e+01 0.000000000000000000e+00 0.000000000000000000e+00 -1.519999951124191284e-01 1.812199974060058594e+01 0.000000000000000000e+00 7.699999958276748657e-02 9.399999678134918213e-02 1.810300064086914062e+01
1.759499931335449219e+01 0.000000000000000000e+00 0.000000000000000000e+00 -1.529999971389770508e-01 1.815299987792968750e+01 0.000000000000000000e+00 7.699999958276748657e-02 9.399999678134918213e-02 1.813400077819824219e+01
1.752599906921386719e+01 0.000000000000000000e+00 0.000000000000000000e+00 -1.519999951124191284e-01 1.808200073242187500e+01 0.000000000000000000e+00 7.699999958276748657e-02 9.399999678134918213e-02 1.806399917602539062e+01
1.761400032043457031e+01 0.000000000000000000e+00 0.000000000000000000e+00 -1.529999971389770508e-01 1.817200088500976562e+01 0.000000000000000000e+00 7.699999958276748657e-02 9.399999678134918213e-02 1.815299987792968750e+01
1.759199905395507812e+01 0.000000000000000000e+00 0.000000000000000000e+00 -1.529999971389770508e-01 1.814999961853027344e+01 0.000000000000000000e+00 7.699999958276748657e-02 9.399999678134918213e-02 1.813100051879882812e+01
1.750399971008300781e+01 0.000000000000000000e+00 0.000000000000000000e+00 -1.519999951124191284e-01 1.805999946594238281e+01 0.000000000000000000e+00 7.699999958276748657e-02 9.300000220537185669e-02 1.804100036621093750e+01
1.756100082397460938e+01 0.000000000000000000e+00 0.000000000000000000e+00 -1.519999951124191284e-01 1.811800003051757812e+01 0.000000000000000000e+00 7.699999958276748657e-02 9.399999678134918213e-02 1.809900093078613281e+01
1.754199981689453125e+01 0.000000000000000000e+00 0.000000000000000000e+00 -1.519999951124191284e-01 1.809799957275390625e+01 0.000000000000000000e+00 7.699999958276748657e-02 9.399999678134918213e-02 1.807999992370605469e+01
1.765099906921386719e+01 0.000000000000000000e+00 0.000000000000000000e+00 -1.529999971389770508e-01 1.821100044250488281e+01 0.000000000000000000e+00 7.699999958276748657e-02 9.399999678134918213e-02 1.819199943542480469e+01
1.752700042724609375e+01 0.000000000000000000e+00 0.000000000000000000e+00 -1.519999951124191284e-01 1.808300018310546875e+01 0.000000000000000000e+00 7.699999958276748657e-02 9.399999678134918213e-02 1.806399917602539062e+01
1.759399986267089844e+01 0.000000000000000000e+00 0.000000000000000000e+00 -1.529999971389770508e-01 1.815200042724609375e+01 0.000000000000000000e+00 7.699999958276748657e-02 9.399999678134918213e-02 1.813400077819824219e+01
1.759499931335449219e+01 0.000000000000000000e+00 0.000000000000000000e+00 -1.529999971389770508e-01 1.815299987792968750e+01 0.000000000000000000e+00 7.699999958276748657e-02 9.399999678134918213e-02 1.813500022888183594e+01
1.757999992370605469e+01 0.000000000000000000e+00 0.000000000000000000e+00 -1.529999971389770508e-01 1.813699913024902344e+01 0.000000000000000000e+00 7.699999958276748657e-02 9.399999678134918213e-02 1.811899948120117188e+01
1.755400085449218750e+01 0.000000000000000000e+00 0.000000000000000000e+00 -1.519999951124191284e-01 1.811100006103515625e+01 0.000000000000000000e+00 7.699999958276748657e-02 9.399999678134918213e-02 1.809199905395507812e+01
1.752700042724609375e+01 0.000000000000000000e+00 0.000000000000000000e+00 -1.519999951124191284e-01 1.808300018310546875e+01 0.000000000000000000e+00 7.699999958276748657e-02 9.399999678134918213e-02 1.806399917602539062e+01
1.756399917602539062e+01 0.000000000000000000e+00 0.000000000000000000e+00 -1.519999951124191284e-01 1.812199974060058594e+01 0.000000000000000000e+00 7.699999958276748657e-02 9.399999678134918213e-02 1.810300064086914062e+01
1.752099990844726562e+01 0.000000000000000000e+00 0.000000000000000000e+00 -1.519999951124191284e-01 1.807699966430664062e+01 0.000000000000000000e+00 7.699999958276748657e-02 9.399999678134918213e-02 1.805800056457519531e+01
1.761599922180175781e+01 0.000000000000000000e+00 0.000000000000000000e+00 -1.529999971389770508e-01 1.817499923706054688e+01 0.000000000000000000e+00 7.699999958276748657e-02 9.399999678134918213e-02 1.815600013732910156e+01
1.752499961853027344e+01 0.000000000000000000e+00 0.000000000000000000e+00 -1.519999951124191284e-01 1.808099937438964844e+01 0.000000000000000000e+00 7.699999958276748657e-02 9.399999678134918213e-02 1.806200027465820312e+01
1.754199981689453125e+01 0.000000000000000000e+00 0.000000000000000000e+00 -1.519999951124191284e-01 1.809799957275390625e+01 0.000000000000000000e+00 7.699999958276748657e-02 9.399999678134918213e-02 1.807900047302246094e+01
1.756399917602539062e+01 0.000000000000000000e+00 0.000000000000000000e+00 -1.519999951124191284e-01 1.812100028991699219e+01 0.000000000000000000e+00 7.699999958276748657e-02 9.399999678134918213e-02 1.810300064086914062e+01
1.755200004577636719e+01 0.000000000000000000e+00 0.000000000000000000e+00 -1.519999951124191284e-01 1.810899925231933594e+01 0.000000000000000000e+00 7.699999958276748657e-02 9.399999678134918213e-02 1.809000015258789062e+01
1.758200073242187500e+01 0.000000000000000000e+00 0.000000000000000000e+00 -1.529999971389770508e-01 1.813999938964843750e+01 0.000000000000000000e+00 7.699999958276748657e-02 9.399999678134918213e-02 1.812100028991699219e+01
1.757699966430664062e+01 0.000000000000000000e+00 0.000000000000000000e+00 -1.529999971389770508e-01 1.813500022888183594e+01 0.000000000000000000e+00 7.699999958276748657e-02 9.399999678134918213e-02 1.811599922180175781e+01
1.757299995422363281e+01 0.000000000000000000e+00 0.000000000000000000e+00 -1.529999971389770508e-01 1.813100051879882812e+01 0.000000000000000000e+00 7.699999958276748657e-02 9.399999678134918213e-02 1.811199951171875000e+01
1.755699920654296875e+01 0.000000000000000000e+00 0.000000000000000000e+00 -1.519999951124191284e-01 1.811400032043457031e+01 0.000000000000000000e+00 7.699999958276748657e-02 9.399999678134918213e-02 1.809499931335449219e+01
1.757399940490722656e+01 0.000000000000000000e+00 0.000000000000000000e+00 -1.529999971389770508e-01 1.813199996948242188e+01 0.000000000000000000e+00 7.699999958276748657e-02 9.399999678134918213e-02 1.811300086975097656e+01
1.754999923706054688e+01 0.000000000000000000e+00 0.000000000000000000e+00 -1.519999951124191284e-01 1.810600090026855469e+01 0.000000000000000000e+00 7.699999958276748657e-02 9.399999678134918213e-02 1.808799934387207031e+01
1.759900093078613281e+01 0.000000000000000000e+00 0.000000000000000000e+00 -1.529999971389770508e-01 1.815699958801269531e+01 0.000000000000000000e+00 7.699999958276748657e-02 9.399999678134918213e-02 1.813800048828125000e+01
1.753899955749511719e+01 0.000000000000000000e+00 0.000000000000000000e+00 -1.519999951124191284e-01 1.809499931335449219e+01 0.000000000000000000e+00 7.699999958276748657e-02 9.399999678134918213e-02 1.807699966430664062e+01
1.760799980163574219e+01 0.000000000000000000e+00 0.000000000000000000e+00 -1.529999971389770508e-01 1.816699981689453125e+01 0.000000000000000000e+00 7.699999958276748657e-02 9.399999678134918213e-02 1.814800071716308594e+01
1.752199935913085938e+01 0.000000000000000000e+00 0.000000000000000000e+00 -1.519999951124191284e-01 1.807799911499023438e+01 0.000000000000000000e+00 7.699999958276748657e-02 9.399999678134918213e-02 1.805900001525878906e+01
1.757799911499023438e+01 0.000000000000000000e+00 0.000000000000000000e+00 -1.529999971389770508e-01 1.813599967956542969e+01 0.000000000000000000e+00 7.699999958276748657e-02 9.399999678134918213e-02 1.811700057983398438e+01
1.753300094604492188e+01 0.000000000000000000e+00 0.000000000000000000e+00 -1.519999951124191284e-01 1.809000015258789062e+01 0.000000000000000000e+00 7.699999958276748657e-02 9.399999678134918213e-02 1.807099914550781250e+01
1.758900070190429688e+01 0.000000000000000000e+00 0.000000000000000000e+00 -1.529999971389770508e-01 1.814599990844726562e+01 0.000000000000000000e+00 7.699999958276748657e-02 9.399999678134918213e-02 1.812800025939941406e+01
1.755299949645996094e+01 0.000000000000000000e+00 0.000000000000000000e+00 -1.519999951124191284e-01 1.811000061035156250e+01 0.000000000000000000e+00 7.699999958276748657e-02 9.399999678134918213e-02 1.809099960327148438e+01
1.751899909973144531e+01 0.000000000000000000e+00 0.000000000000000000e+00 -1.519999951124191284e-01 1.807500076293945312e+01 0.000000000000000000e+00 7.699999958276748657e-02 9.399999678134918213e-02 1.805599975585937500e+01
1.750699996948242188e+01 0.000000000000000000e+00 0.000000000000000000e+00 -1.519999951124191284e-01 1.806200027465820312e+01 0.000000000000000000e+00 7.699999958276748657e-02 9.300000220537185669e-02 1.804299926757812500e+01
1.761899948120117188e+01 0.000000000000000000e+00 0.000000000000000000e+00 -1.529999971389770508e-01 1.817799949645996094e+01 0.000000000000000000e+00 7.699999958276748657e-02 9.399999678134918213e-02 1.815900039672851562e+01
1.753899955749511719e+01 0.000000000000000000e+00 0.000000000000000000e+00 -1.519999951124191284e-01 1.809499931335449219e+01 0.000000000000000000e+00 7.699999958276748657e-02 9.399999678134918213e-02 1.807600021362304688e+01
1.754899978637695312e+01 0.000000000000000000e+00 0.000000000000000000e+00 -1.519999951124191284e-01 1.810600090026855469e+01 0.000000000000000000e+00 7.699999958276748657e-02 9.399999678134918213e-02 1.808699989318847656e+01
1.754599952697753906e+01 0.000000000000000000e+00 0.000000000000000000e+00 -1.519999951124191284e-01 1.810300064086914062e+01 0.000000000000000000e+00 7.699999958276748657e-02 9.399999678134918213e-02 1.808399963378906250e+01
1.772500038146972656e+01 0.000000000000000000e+00 0.000000000000000000e+00 -1.539999991655349731e-01 1.828700065612792969e+01 0.000000000000000000e+00 7.800000160932540894e-02 9.499999880790710449e-02 1.826799964904785156e+01
1.770499992370605469e+01 0.000000000000000000e+00 0.000000000000000000e+00 -1.539999991655349731e-01 1.826700019836425781e+01 0.000000000000000000e+00 7.699999958276748657e-02 9.499999880790710449e-02 1.824799919128417969e+01
1.774200057983398438e+01 0.000000000000000000e+00 0.000000000000000000e+00 -1.539999991655349731e-01 1.830500030517578125e+01 0.000000000000000000e+00 7.800000160932540894e-02 9.499999880790710449e-02 1.828599929809570312e+01
1.770400047302246094e+01 0.000000000000000000e+00 0.000000000000000000e+00 -1.539999991655349731e-01 1.826600074768066406e+01 0.000000000000000000e+00 7.699999958276748657e-02 9.499999880790710449e-02 1.824699974060058594e+01
1.780599975585937500e+01 0.000000000000000000e+00 0.000000000000000000e+00 -1.550000011920928955e-01 1.837000083923339844e+01 0.000000000000000000e+00 7.800000160932540894e-02 9.499999880790710449e-02 1.835099983215332031e+01
1.792399978637695312e+01 0.000000000000000000e+00 0.000000000000000000e+00 -1.560000032186508179e-01 1.849300003051757812e+01 0.000000000000000000e+00 7.800000160932540894e-02 9.600000083446502686e-02 1.847400093078613281e+01
1.797900009155273438e+01 0.000000000000000000e+00 0.000000000000000000e+00 -1.560000032186508179e-01 1.854899978637695312e+01 0.000000000000000000e+00 7.900000363588333130e-02 9.600000083446502686e-02 1.853000068664550781e+01
1.792499923706054688e+01 0.000000000000000000e+00 0.000000000000000000e+00 -1.560000032186508179e-01 1.849300003051757812e+01 0.000000000000000000e+00 7.800000160932540894e-02 9.600000083446502686e-02 1.847400093078613281e+01
1.784099960327148438e+01 0.000000000000000000e+00 0.000000000000000000e+00 -1.550000011920928955e-01 1.840699958801269531e+01 0.000000000000000000e+00 7.800000160932540894e-02 9.499999880790710449e-02 1.838800048828125000e+01
1.775000000000000000e+01 0.000000000000000000e+00 0.000000000000000000e+00 -1.539999991655349731e-01 1.831299972534179688e+01 0.000000000000000000e+00 7.800000160932540894e-02 9.499999880790710449e-02 1.829400062561035156e+01
1.770999908447265625e+01 0.000000000000000000e+00 0.000000000000000000e+00 -1.539999991655349731e-01 1.827199935913085938e+01 0.000000000000000000e+00 7.800000160932540894e-02 9.499999880790710449e-02 1.825300025939941406e+01
1.785400009155273438e+01 0.000000000000000000e+00 0.000000000000000000e+00 -1.550000011920928955e-01 1.842000007629394531e+01 0.000000000000000000e+00 7.800000160932540894e-02 9.499999880790710449e-02 1.840099906921386719e+01
1.784099960327148438e+01 0.000000000000000000e+00 0.000000000000000000e+00 -1.550000011920928955e-01 1.840600013732910156e+01 0.000000000000000000e+00 7.800000160932540894e-02 9.499999880790710449e-02 1.838699913024902344e+01
1.781900024414062500e+01 0.000000000000000000e+00 0.000000000000000000e+00 -1.550000011920928955e-01 1.838500022888183594e+01 0.000000000000000000e+00 7.800000160932540894e-02 9.499999880790710449e-02 1.836499977111816406e+01
1.808499908447265625e+01 0.000000000000000000e+00 0.000000000000000000e+00 -1.570000052452087402e-01 1.865900039672851562e+01 0.000000000000000000e+00 7.900000363588333130e-02 9.700000286102294922e-02 1.863899993896484375e+01
1.781500053405761719e+01 0.000000000000000000e+00 0.000000000000000000e+00 -1.550000011920928955e-01 1.837999916076660156e+01 0.000000000000000000e+00 7.800000160932540894e-02 9.499999880790710449e-02 1.836100006103515625e+01
1.775499916076660156e+01 0.000000000000000000e+00 0.000000000000000000e+00 -1.539999991655349731e-01 1.831800079345703125e+01 0.000000000000000000e+00 7.800000160932540894e-02 9.499999880790710449e-02 1.829899978637695312e+01
1.794599914550781250e+01 0.000000000000000000e+00 0.000000000000000000e+00 -1.560000032186508179e-01 1.851499938964843750e+01 0.000000000000000000e+00 7.900000363588333130e-02 9.600000083446502686e-02 1.849600028991699219e+01
1.778899955749511719e+01 0.000000000000000000e+00 0.000000000000000000e+00 -1.539999991655349731e-01 1.835300064086914062e+01 0.000000000000000000e+00 7.800000160932540894e-02 9.499999880790710449e-02 1.833399963378906250e+01
1.778499984741210938e+01 0.000000000000000000e+00 0.000000000000000000e+00 -1.539999991655349731e-01 1.834900093078613281e+01 0.000000000000000000e+00 7.800000160932540894e-02 9.499999880790710449e-02 1.832999992370605469e+01
1.780900001525878906e+01 0.000000000000000000e+00 0.000000000000000000e+00 -1.550000011920928955e-01 1.837400054931640625e+01 0.000000000000000000e+00 7.800000160932540894e-02 9.499999880790710449e-02 1.835499954223632812e+01
1.785400009155273438e+01 0.000000000000000000e+00 0.000000000000000000e+00 -1.550000011920928955e-01 1.842000007629394531e+01 0.000000000000000000e+00 7.800000160932540894e-02 9.499999880790710449e-02 1.840099906921386719e+01
1.781599998474121094e+01 0.000000000000000000e+00 0.000000000000000000e+00 -1.550000011920928955e-01 1.838100051879882812e+01 0.000000000000000000e+00 7.800000160932540894e-02 9.499999880790710449e-02 1.836199951171875000e+01
1.791699981689453125e+01 0.000000000000000000e+00 0.000000000000000000e+00 -1.560000032186508179e-01 1.848600006103515625e+01 0.000000000000000000e+00 7.800000160932540894e-02 9.600000083446502686e-02 1.846599960327148438e+01
1.777099990844726562e+01 0.000000000000000000e+00 0.000000000000000000e+00 -1.539999991655349731e-01 1.833399963378906250e+01 0.000000000000000000e+00 7.800000160932540894e-02 9.499999880790710449e-02 1.831500053405761719e+01
1.795700073242187500e+01 0.000000000000000000e+00 0.000000000000000000e+00 -1.560000032186508179e-01 1.852700042724609375e+01 0.000000000000000000e+00 7.900000363588333130e-02 9.600000083446502686e-02 1.850799942016601562e+01
1.792799949645996094e+01 0.000000000000000000e+00 0.000000000000000000e+00 -1.560000032186508179e-01 1.849699974060058594e+01 0.000000000000000000e+00 7.800000160932540894e-02 9.600000083446502686e-02 1.847800064086914062e+01
1.791099929809570312e+01 0.000000000000000000e+00 0.000000000000000000e+00 -1.550000011920928955e-01 1.847900009155273438e+01 0.000000000000000000e+00 7.800000160932540894e-02 9.600000083446502686e-02 1.845999908447265625e+01
1.785000038146972656e+01 0.000000000000000000e+00 0.000000000000000000e+00 -1.550000011920928955e-01 1.841699981689453125e+01 0.000000000000000000e+00 7.800000160932540894e-02 9.499999880790710449e-02 1.839699935913085938e+01
1.791399955749511719e+01 0.000000000000000000e+00 0.000000000000000000e+00 -1.560000032186508179e-01 1.848200035095214844e+01 0.000000000000000000e+00 7.800000160932540894e-02 9.600000083446502686e-02 1.846299934387207031e+01
1.796800041198730469e+01 0.000000000000000000e+00 0.000000000000000000e+00 -1.560000032186508179e-01 1.853800010681152344e+01 0.000000000000000000e+00 7.900000363588333130e-02 9.600000083446502686e-02 1.851899909973144531e+01
1.786599922180175781e+01 0.000000000000000000e+00 0.000000000000000000e+00 -1.550000011920928955e-01 1.843300056457519531e+01 0.000000000000000000e+00 7.800000160932540894e-02 9.499999880790710449e-02 1.841399955749511719e+01
1.774200057983398438e+01 0.000000000000000000e+00 0.000000000000000000e+00 -1.539999991655349731e-01 1.830500030517578125e+01 0.000000000000000000e+00 7.800000160932540894e-02 9.499999880790710449e-02 1.828599929809570312e+01
1.785799980163574219e+01 0.000000000000000000e+00 0.000000000000000000e+00 -1.550000011920928955e-01 1.842499923706054688e+01 0.000000000000000000e+00 7.800000160932540894e-02 9.499999880790710449e-02 1.840600013732910156e+01
1.797900009155273438e+01 0.000000000000000000e+00 0.000000000000000000e+00 -1.560000032186508179e-01 1.854899978637695312e+01 0.000000000000000000e+00 7.900000363588333130e-02 9.600000083446502686e-02 1.853000068664550781e+01
1.780900001525878906e+01 0.000000000000000000e+00 0.000000000000000000e+00 -1.550000011920928955e-01 1.837400054931640625e+01 0.000000000000000000e+00 7.800000160932540894e-02 9.499999880790710449e-02 1.835499954223632812e+01
1.778800010681152344e+01 0.000000000000000000e+00 0.000000000000000000e+00 -1.539999991655349731e-01 1.835199928283691406e+01 0.000000000000000000e+00 7.800000160932540894e-02 9.499999880790710449e-02 1.833300018310546875e+01
1.774600028991699219e+01 0.000000000000000000e+00 0.000000000000000000e+00 -1.539999991655349731e-01 1.830900001525878906e+01 0.000000000000000000e+00 7.800000160932540894e-02 9.499999880790710449e-02 1.829000091552734375e+01
1.787800025939941406e+01 0.000000000000000000e+00 0.000000000000000000e+00 -1.550000011920928955e-01 1.844499969482421875e+01 0.000000000000000000e+00 7.800000160932540894e-02 9.499999880790710449e-02 1.842600059509277344e+01
1.780299949645996094e+01 0.000000000000000000e+00 0.000000000000000000e+00 -1.550000011920928955e-01 1.836700057983398438e+01 0.000000000000000000e+00 7.800000160932540894e-02 9.499999880790710449e-02 1.834799957275390625e+01
1.796999931335449219e+01 0.000000000000000000e+00 0.000000000000000000e+00 -1.560000032186508179e-01 1.854000091552734375e+01 0.000000000000000000e+00 7.900000363588333130e-02 9.600000083446502686e-02 1.852000045776367188e+01
1.791699981689453125e+01 0.000000000000000000e+00 0.000000000000000000e+00 -1.560000032186508179e-01 1.848600006103515625e+01 0.000000000000000000e+00 7.800000160932540894e-02 9.600000083446502686e-02 1.846599960327148438e+01
1.797100067138671875e+01 0.000000000000000000e+00 0.000000000000000000e+00 -1.560000032186508179e-01 1.854100036621093750e+01 0.000000000000000000e+00 7.900000363588333130e-02 9.600000083446502686e-02 1.852099990844726562e+01
1.787899971008300781e+01 0.000000000000000000e+00 0.000000000000000000e+00 -1.550000011920928955e-01 1.844700050354003906e+01 0.000000000000000000e+00 7.800000160932540894e-02 9.499999880790710449e-02 1.842700004577636719e+01
1.792200088500976562e+01 0.000000000000000000e+00 0.000000000000000000e+00 -1.560000032186508179e-01 1.849099922180175781e+01 0.000000000000000000e+00 7.800000160932540894e-02 9.600000083446502686e-02 1.847200012207031250e+01
1.772500038146972656e+01 0.000000000000000000e+00 0.000000000000000000e+00 -1.539999991655349731e-01 1.828700065612792969e+01 0.000000000000000000e+00 7.800000160932540894e-02 9.499999880790710449e-02 1.826799964904785156e+01
1.768600082397460938e+01 0.000000000000000000e+00 0.000000000000000000e+00 -1.539999991655349731e-01 1.824699974060058594e+01 0.000000000000000000e+00 7.699999958276748657e-02 9.399999678134918213e-02 1.822800064086914062e+01
1.791799926757812500e+01 0.000000000000000000e+00 0.000000000000000000e+00 -1.560000032186508179e-01 1.848600006103515625e+01 0.000000000000000000e+00 7.800000160932540894e-02 9.600000083446502686e-02 1.846699905395507812e+01
1.798600006103515625e+01 0.000000000000000000e+00 0.000000000000000000e+00 -1.560000032186508179e-01 1.855599975585937500e+01 0.000000000000000000e+00 7.900000363588333130e-02 9.600000083446502686e-02 1.853700065612792969e+01
1.800699996948242188e+01 0.000000000000000000e+00 0.000000000000000000e+00 -1.560000032186508179e-01 1.857900047302246094e+01 0.000000000000000000e+00 7.900000363588333130e-02 9.600000083446502686e-02 1.855900001525878906e+01
1.823100090026855469e+01 0.000000000000000000e+00 0.000000000000000000e+00 -1.580000072717666626e-01 1.880900001525878906e+01 0.000000000000000000e+00 7.999999821186065674e-02 9.700000286102294922e-02 1.878899955749511719e+01
1.833699989318847656e+01 0.000000000000000000e+00 0.000000000000000000e+00 -1.589999943971633911e-01 1.891900062561035156e+01 0.000000000000000000e+00 7.999999821186065674e-02 9.799999743700027466e-02 1.889900016784667969e+01
1.807699966430664062e+01 0.000000000000000000e+00 0.000000000000000000e+00 -1.570000052452087402e-01 1.865099906921386719e+01 0.000000000000000000e+00 7.900000363588333130e-02 9.700000286102294922e-02 1.863100051879882812e+01
1.809799957275390625e+01 0.000000000000000000e+00 0.000000000000000000e+00 -1.570000052452087402e-01 1.867200088500976562e+01 0.000000000000000000e+00 7.900000363588333130e-02 9.700000286102294922e-02 1.865299987792968750e+01
1.819000053405761719e+01 0.000000000000000000e+00 0.000000000000000000e+00 -1.580000072717666626e-01 1.876700019836425781e+01 0.000000000000000000e+00 7.999999821186065674e-02 9.700000286102294922e-02 1.874799919128417969e+01
1.824399948120117188e+01 0.000000000000000000e+00 0.000000000000000000e+00 -1.580000072717666626e-01 1.882200050354003906e+01 0.000000000000000000e+00 7.999999821186065674e-02 9.700000286102294922e-02 1.880299949645996094e+01
1.828400039672851562e+01 0.000000000000000000e+00 0.000000000000000000e+00 -1.589999943971633911e-01 1.886400032043457031e+01 0.000000000000000000e+00 7.999999821186065674e-02 9.799999743700027466e-02 1.884399986267089844e+01
1.831900024414062500e+01 0.000000000000000000e+00 0.000000000000000000e+00 -1.589999943971633911e-01 1.889999961853027344e+01 0.000000000000000000e+00 7.999999821186065674e-02 9.799999743700027466e-02 1.887999916076660156e+01
1.834600067138671875e+01 0.000000000000000000e+00 0.000000000000000000e+00 -1.589999943971633911e-01 1.892799949645996094e+01 0.000000000000000000e+00 7.999999821186065674e-02 9.799999743700027466e-02 1.890800094604492188e+01
1.826600074768066406e+01 0.000000000000000000e+00 0.000000000000000000e+00 -1.589999943971633911e-01 1.884499931335449219e+01 0.000000000000000000e+00 7.999999821186065674e-02 9.799999743700027466e-02 1.882500076293945312e+01
1.829700088500976562e+01 0.000000000000000000e+00 0.000000000000000000e+00 -1.589999943971633911e-01 1.887800025939941406e+01 0.000000000000000000e+00 7.999999821186065674e-02 9.799999743700027466e-02 1.885799980163574219e+01
1.831900024414062500e+01 0.000000000000000000e+00 0.000000000000000000e+00 -1.589999943971633911e-01 1.889999961853027344e+01 0.000000000000000000e+00 7.999999821186065674e-02 9.799999743700027466e-02 1.888100051879882812e+01
1.836800003051757812e+01 0.000000000000000000e+00 0.000000000000000000e+00 -1.589999943971633911e-01 1.895000076293945312e+01 0.000000000000000000e+00 7.999999821186065674e-02 9.799999743700027466e-02 1.893099975585937500e+01
1.837999916076660156e+01 0.000000000000000000e+00 0.000000000000000000e+00 -1.599999964237213135e-01 1.896299934387207031e+01 0.000000000000000000e+00 7.999999821186065674e-02 9.799999743700027466e-02 1.894300079345703125e+01
1.826600074768066406e+01 0.000000000000000000e+00 0.000000000000000000e+00 -1.589999943971633911e-01 1.884600067138671875e+01 0.000000000000000000e+00 7.999999821186065674e-02 9.799999743700027466e-02 1.882600021362304688e+01
1.832500076293945312e+01 0.000000000000000000e+00 0.000000000000000000e+00 -1.589999943971633911e-01 1.890699958801269531e+01 0.000000000000000000e+00 7.999999821186065674e-02 9.799999743700027466e-02 1.888699913024902344e+01
1.840399932861328125e+01 0.000000000000000000e+00 0.000000000000000000e+00 -1.599999964237213135e-01 1.898800086975097656e+01 0.000000000000000000e+00 8.100000023841857910e-02 9.799999743700027466e-02 1.896800041198730469e+01
1.832500076293945312e+01 0.000000000000000000e+00 0.000000000000000000e+00 -1.589999943971633911e-01 1.890699958801269531e+01 0.000000000000000000e+00 7.999999821186065674e-02 9.799999743700027466e-02 1.888699913024902344e+01
1.848299980163574219e+01 0.000000000000000000e+00 0.000000000000000000e+00 -1.599999964237213135e-01 1.906900024414062500e+01 0.000000000000000000e+00 8.100000023841857910e-02 9.899999946355819702e-02 1.904899978637695312e+01
1.839500045776367188e+01 0.000000000000000000e+00 0.000000000000000000e+00 -1.599999964237213135e-01 1.897800064086914062e+01 0.000000000000000000e+00 8.100000023841857910e-02 9.799999743700027466e-02 1.895899963378906250e+01
1.822200012207031250e+01 0.000000000000000000e+00 0.000000000000000000e+00 -1.580000072717666626e-01 1.879999923706054688e+01 0.000000000000000000e+00 7.999999821186065674e-02 9.700000286102294922e-02 1.878100013732910156e+01
1.838500022888183594e+01 0.000000000000000000e+00 0.000000000000000000e+00 -1.599999964237213135e-01 1.896800041198730469e+01 0.000000000000000000e+00 7.999999821186065674e-02 9.799999743700027466e-02 1.894799995422363281e+01
1.829199981689453125e+01 0.000000000000000000e+00 0.000000000000000000e+00 -1.589999943971633911e-01 1.887299919128417969e+01 0.000000000000000000e+00 7.999999821186065674e-02 9.799999743700027466e-02 1.885300064086914062e+01
1.832099914550781250e+01 0.000000000000000000e+00 0.000000000000000000e+00 -1.589999943971633911e-01 1.890299987792968750e+01 0.000000000000000000e+00 7.999999821186065674e-02 9.799999743700027466e-02 1.888299942016601562e+01
1.840200042724609375e+01 0.000000000000000000e+00 0.000000000000000000e+00 -1.599999964237213135e-01 1.898600006103515625e+01 0.000000000000000000e+00 8.100000023841857910e-02 9.799999743700027466e-02 1.896599960327148438e+01
1.835000038146972656e+01 0.000000000000000000e+00 0.000000000000000000e+00 -1.589999943971633911e-01 1.893199920654296875e+01 0.000000000000000000e+00 7.999999821186065674e-02 9.799999743700027466e-02 1.891300010681152344e+01
1.826700019836425781e+01 0.000000000000000000e+00 0.000000000000000000e+00 -1.589999943971633911e-01 1.884700012207031250e+01 0.000000000000000000e+00 7.999999821186065674e-02 9.799999743700027466e-02 1.882699966430664062e+01
1.841900062561035156e+01 0.000000000000000000e+00 0.000000000000000000e+00 -1.599999964237213135e-01 1.900300025939941406e+01 0.000000000000000000e+00 8.100000023841857910e-02 9.799999743700027466e-02 1.898399925231933594e+01
1.839999961853027344e+01 0.000000000000000000e+00 0.000000000000000000e+00 -1.599999964237213135e-01 1.898399925231933594e+01 0.000000000000000000e+00 8.100000023841857910e-02 9.799999743700027466e-02 1.896400070190429688e+01
1.834600067138671875e+01 0.000000000000000000e+00 0.000000000000000000e+00 -1.589999943971633911e-01 1.892799949645996094e+01 0.000000000000000000e+00 7.999999821186065674e-02 9.799999743700027466e-02 1.890800094604492188e+01
1.859300041198730469e+01 0.000000000000000000e+00 0.000000000000000000e+00 -1.609999984502792358e-01 1.918300056457519531e+01 0.000000000000000000e+00 8.100000023841857910e-02 9.899999946355819702e-02 1.916300010681152344e+01
1.858600044250488281e+01 0.000000000000000000e+00 0.000000000000000000e+00 -1.609999984502792358e-01 1.917600059509277344e+01 0.000000000000000000e+00 8.100000023841857910e-02 9.899999946355819702e-02 1.915600013732910156e+01
1.842399978637695312e+01 0.000000000000000000e+00 0.000000000000000000e+00 -1.599999964237213135e-01 1.900900077819824219e+01 0.000000000000000000e+00 8.100000023841857910e-02 9.799999743700027466e-02 1.898900032043457031e+01
1.839399909973144531e+01 0.000000000000000000e+00 0.000000000000000000e+00 -1.599999964237213135e-01 1.897699928283691406e+01 0.000000000000000000e+00 7.999999821186065674e-02 9.799999743700027466e-02 1.895700073242187500e+01
1.856399917602539062e+01 0.000000000000000000e+00 0.000000000000000000e+00 -1.609999984502792358e-01 1.915299987792968750e+01 0.000000000000000000e+00 8.100000023841857910e-02 9.899999946355819702e-02 1.913299942016601562e+01
1.849500083923339844e+01 0.000000000000000000e+00 0.000000000000000000e+00 -1.609999984502792358e-01 1.908099937438964844e+01 0.000000000000000000e+00 8.100000023841857910e-02 9.899999946355819702e-02 1.906100082397460938e+01