-6.244278906250000000e+04
-6.243397265625000000e+04
-6.243316406250000000e+04
-6.243233593750000000e+04
-6.243050390625000000e+04
-6.243044140625000000e+04
-6.243071484375000000e+04
-6.243000390625000000e+04
-6.243106640625000000e+04
-6.243061718750000000e+04
-6.243087500000000000e+04
-6.243075390625000000e+04
-6.243108593750000000e+04
-6.243190625000000000e+04
-6.243073828125000000e+04
-6.243008203125000000e+04
-6.243063281250000000e+04
-6.243182812500000000e+04
-6.243063281250000000e+04
-6.243122656250000000e+04
-6.243083203125000000e+04
-6.243048828125000000e+04
-6.243075000000000000e+04
-6.243133203125000000e+04
-6.243154687500000000e+04
-6.243113671875000000e+04
-6.242965234375000000e+04
-6.242961718750000000e+04
-6.243067578125000000e+04
-6.243085546875000000e+04
-6.243175390625000000e+04
-6.243173437500000000e+04
-6.243129687500000000e+04
-6.243033984375000000e+04
-6.243023828125000000e+04
-6.242998437500000000e+04
-6.243057421875000000e+04
-6.243025781250000000e+04
-6.243046875000000000e+04
-6.242927734375000000e+04
-6.243096875000000000e+04
-6.243230468750000000e+04
-6.243007812500000000e+04
-6.243024218750000000e+04
-6.243055859375000000e+04
-6.243051562500000000e+04
-6.244278906250000000e+04
-6.242428515625000000e+04
-6.242119531250000000e+04
-6.241805078125000000e+04
-6.241896093750000000e+04
-6.241351562500000000e+04
-6.241249609375000000e+04
-6.241121875000000000e+04
-6.241499218750000000e+04
-6.241608203125000000e+04
-6.241483984375000000e+04
-6.241480468750000000e+04
-6.241444921875000000e+04
-6.241314062500000000e+04
-6.241294531250000000e+04
-6.241428515625000000e+04
-6.241318750000000000e+04
-6.241256640625000000e+04
-6.241514062500000000e+04
-6.241524609375000000e+04
-6.241335156250000000e+04
-6.241414062500000000e+04
-6.241318750000000000e+04
-6.241502343750000000e+04
-6.241557812500000000e+04
-6.241397265625000000e+04
-6.241339453125000000e+04
-6.241230078125000000e+04
-6.241143359375000000e+04
-6.241264453125000000e+04
-6.241648437500000000e+04
-6.241410937500000000e+04
-6.241541015625000000e+04
-6.241276562500000000e+04
-6.241162500000000000e+04
-6.241436328125000000e+04
-6.241365234375000000e+04
-6.241651171875000000e+04
-6.241269921875000000e+04
-6.241285546875000000e+04
-6.241197656250000000e+04
-6.241145312500000000e+04
-6.241084765625000000e+04
-6.241281250000000000e+04
-6.241014453125000000e+04
-6.244278906250000000e+04
-6.241729296875000000e+04
-6.240816796875000000e+04
-6.240445703125000000e+04
-6.239996093750000000e+04
-6.239566406250000000e+04
-6.239058203125000000e+04
-6.239230078125000000e+04
-6.239205468750000000e+04
-6.239421484375000000e+04
-6.239519531250000000e+04
-6.239192187500000000e+04
-6.239073046875000000e+04
-6.239056250000000000e+04
-6.238587500000000000e+04
-6.238987890625000000e+04
-6.239069531250000000e+04
-6.238966015625000000e+04
-6.238912109375000000e+04
-6.239024609375000000e+04
-6.238878906250000000e+04
-6.239179687500000000e+04
-6.239018359375000000e+04
-6.238766406250000000e+04
-6.238770312500000000e+04
-6.238726562500000000e+04
-6.238603515625000000e+04
-6.238500000000000000e+04
-6.239249218750000000e+04
-6.238817968750000000e+04
-6.238677343750000000e+04
-6.238562109375000000e+04
-6.238597265625000000e+04
-6.238425000000000000e+04
-6.237993750000000000e+04
-6.238355859375000000e+04
-6.238312109375000000e+04
-6.238816015625000000e+04
-6.238691015625000000e+04
-6.238853125000000000e+04
-6.238485546875000000e+04
-6.238617187500000000e+04
-6.238496484375000000e+04
-6.238213671875000000e+04
-6.238630859375000000e+04
-6.238725390625000000e+04
-6.238477734375000000e+04
-6.238869531250000000e+04
-6.238827734375000000e+04
-6.244216406250000000e+04
-6.243399218750000000e+04
-6.243388281250000000e+04
-6.243119531250000000e+04
-6.243107812500000000e+04
-6.243080859375000000e+04
-6.243208593750000000e+04
-6.243077734375000000e+04
-6.243109765625000000e+04
-6.243033984375000000e+04
-6.243154296875000000e+04
-6.243157812500000000e+04
-6.243060546875000000e+04
-6.243205078125000000e+04
-6.243106250000000000e+04
-6.243009765625000000e+04
-6.243070703125000000e+04
-6.243126953125000000e+04
-6.243021093750000000e+04
-6.243061718750000000e+04
-6.243058203125000000e+04
-6.243084765625000000e+04
-6.243082812500000000e+04
-6.242915234375000000e+04
-6.242985156250000000e+04
-6.243044531250000000e+04
-6.243102734375000000e+04
-6.243098828125000000e+04
-6.243053125000000000e+04
-6.242981640625000000e+04
-6.242949218750000000e+04
-6.243065625000000000e+04
-6.242924609375000000e+04
-6.243051562500000000e+04
-6.242896484375000000e+04
-6.243053515625000000e+04
-6.242955078125000000e+04
-6.242875390625000000e+04
-6.243026171875000000e+04
-6.243047656250000000e+04
-6.242982421875000000e+04
-6.242873828125000000e+04
-6.242841406250000000e+04
-6.242827734375000000e+04
-6.243002343750000000e+04
-6.243063671875000000e+04
-6.244216406250000000e+04
-6.242673828125000000e+04
-6.242401953125000000e+04
-6.242165234375000000e+04
-6.241986718750000000e+04
-6.241763671875000000e+04
-6.241511718750000000e+04
-6.241388281250000000e+04
-6.241448046875000000e+04
-6.241541406250000000e+04
-6.241668359375000000e+04
-6.241646484375000000e+04
-6.241507812500000000e+04
-6.241476953125000000e+04
-6.241653906250000000e+04
-6.241589062500000000e+04
-6.241599609375000000e+04
-6.241507421875000000e+04
-6.241683984375000000e+04
-6.241418359375000000e+04
-6.241456640625000000e+04
-6.241532812500000000e+04
-6.241403906250000000e+04
-6.241419531250000000e+04
-6.241358984375000000e+04
-6.241331250000000000e+04
-6.241348828125000000e+04
-6.241427343750000000e+04
-6.241401562500000000e+04
-6.241457812500000000e+04
-6.241269921875000000e+04
-6.241298828125000000e+04
-6.241362109375000000e+04
-6.241275000000000000e+04
-6.241482812500000000e+04
-6.241573046875000000e+04
-6.241109375000000000e+04
-6.241017578125000000e+04
-6.241154296875000000e+04
-6.241091796875000000e+04
-6.241232812500000000e+04
-6.241111718750000000e+04
-6.240893750000000000e+04
-6.241130468750000000e+04
-6.241275390625000000e+04
-6.241261718750000000e+04
-6.241232421875000000e+04
-6.241410156250000000e+04
-6.241295703125000000e+04
-6.244216406250000000e+04
-6.241772265625000000e+04
-6.241606250000000000e+04
-6.240991015625000000e+04
-6.240523828125000000e+04
-6.239925781250000000e+04
-6.239154687500000000e+04
-6.238979687500000000e+04
-6.238780859375000000e+04
-6.238989453125000000e+04
-6.239093359375000000e+04
-6.239448437500000000e+04
-6.239432421875000000e+04
-6.239265234375000000e+04
-6.239484765625000000e+04
-6.239462500000000000e+04
-6.238979296875000000e+04
-6.239111718750000000e+04
-6.238966406250000000e+04
-6.239191406250000000e+04
-6.238867968750000000e+04
-6.239094921875000000e+04
-6.239501953125000000e+04
-6.239244140625000000e+04
-6.238553125000000000e+04
-6.238769140625000000e+04
-6.238821093750000000e+04
-6.238917968750000000e+04
-6.239091015625000000e+04
-6.239271093750000000e+04
-6.238834765625000000e+04
-6.238789453125000000e+04
-6.238678906250000000e+04
-6.239149218750000000e+04
-6.239324218750000000e+04
-6.238962500000000000e+04
-6.238885546875000000e+04
-6.238739062500000000e+04
-6.238569921875000000e+04
-6.238855078125000000e+04
-6.238688281250000000e+04
-6.239037500000000000e+04
-6.239035937500000000e+04
-6.239015625000000000e+04
-6.238871875000000000e+04
-6.238574218750000000e+04
-6.243321093750000000e+04
-6.243264062500000000e+04
-6.243163671875000000e+04
-6.243075390625000000e+04
-6.243118750000000000e+04
-6.243133203125000000e+04
-6.243079296875000000e+04
-6.243096484375000000e+04
-6.242992968750000000e+04
-6.243087500000000000e+04
-6.243081640625000000e+04
-6.243026171875000000e+04
-6.242921484375000000e+04
-6.242991015625000000e+04
-6.243024609375000000e+04
-6.243080859375000000e+04
-6.243009765625000000e+04
-6.242986328125000000e+04
-6.242969921875000000e+04
-6.243017968750000000e+04
-6.243162500000000000e+04
-6.243053125000000000e+04
-6.243153125000000000e+04
-6.243093359375000000e+04
-6.242938281250000000e+04
-6.243038671875000000e+04
-6.243140625000000000e+04
-6.243134765625000000e+04
-6.242904296875000000e+04
-6.243009765625000000e+04
-6.242979687500000000e+04
-6.243128906250000000e+04
-6.243073437500000000e+04
-6.243021484375000000e+04
-6.243167187500000000e+04
-6.242942968750000000e+04
-6.242911718750000000e+04
-6.242917578125000000e+04
-6.243055078125000000e+04
-6.242934375000000000e+04
-6.243020312500000000e+04
-6.243019140625000000e+04
-6.242954687500000000e+04
-6.244164453125000000e+04
-6.242552734375000000e+04
-6.242385937500000000e+04
-6.242103515625000000e+04
-6.241820312500000000e+04
-6.241642968750000000e+04
-6.241248046875000000e+04
-6.241240234375000000e+04
-6.241157812500000000e+04
-6.241552734375000000e+04
-6.241665625000000000e+04
-6.240980468750000000e+04
-6.241305468750000000e+04
-6.241510546875000000e+04
-6.241443750000000000e+04
-6.241557812500000000e+04
-6.241611718750000000e+04
-6.241770312500000000e+04
-6.241588671875000000e+04
-6.241545312500000000e+04
-6.241380859375000000e+04
-6.241525781250000000e+04
-6.241606640625000000e+04
-6.241585156250000000e+04
-6.241578125000000000e+04
-6.241407421875000000e+04
-6.241124609375000000e+04
-6.241098046875000000e+04
-6.241209765625000000e+04
-6.241513671875000000e+04
-6.241461718750000000e+04
-6.241743359375000000e+04
-6.241620312500000000e+04
-6.241423437500000000e+04
-6.241314453125000000e+04
-6.241368359375000000e+04
-6.241400390625000000e+04
-6.241641015625000000e+04
-6.241611718750000000e+04
-6.241642578125000000e+04
-6.241551562500000000e+04
-6.241479687500000000e+04
-6.241551562500000000e+04
-6.241535546875000000e+04
-6.241596875000000000e+04
-6.241789453125000000e+04
-6.241789843750000000e+04
-6.244164453125000000e+04
-6.241703906250000000e+04
-6.241653906250000000e+04
-6.240392187500000000e+04
-6.239796484375000000e+04
-6.239628515625000000e+04
-6.239169140625000000e+04
-6.239065625000000000e+04
-6.239512109375000000e+04
-6.239609765625000000e+04
-6.239735156250000000e+04
-6.239525781250000000e+04
-6.238859765625000000e+04
-6.238897265625000000e+04
-6.238749609375000000e+04
-6.239147265625000000e+04
-6.239221875000000000e+04
-6.239157421875000000e+04
-6.239117578125000000e+04
-6.239098828125000000e+04
-6.239119531250000000e+04
-6.239002734375000000e+04
-6.239155468750000000e+04
-6.238708203125000000e+04
-6.238974609375000000e+04
-6.239077343750000000e+04
-6.239350000000000000e+04
-6.239148828125000000e+04
-6.239000781250000000e+04
-6.239075781250000000e+04
-6.238641406250000000e+04
-6.238698437500000000e+04
-6.239128906250000000e+04
-6.239286718750000000e+04
-6.239433593750000000e+04
-6.239194531250000000e+04
-6.239208593750000000e+04
-6.239058593750000000e+04
-6.238877734375000000e+04
-6.238955468750000000e+04
-6.239541015625000000e+04
-6.239415234375000000e+04
-6.238730468750000000e+04
-6.238719921875000000e+04
-6.244222656250000000e+04
-6.243308203125000000e+04
-6.243259375000000000e+04
-6.243116406250000000e+04
-6.242975781250000000e+04
-6.243077343750000000e+04
-6.242959765625000000e+04
-6.243000000000000000e+04
-6.243023828125000000e+04
-6.242903515625000000e+04
-6.242808593750000000e+04
-6.243069531250000000e+04
-6.242947265625000000e+04
-6.242982031250000000e+04
-6.242995703125000000e+04
-6.242842578125000000e+04
-6.242856250000000000e+04
-6.242917578125000000e+04
-6.242906250000000000e+04
-6.243088671875000000e+04
-6.243007031250000000e+04
-6.242893359375000000e+04
-6.242794140625000000e+04
-6.242900390625000000e+04
-6.243036718750000000e+04
-6.242985937500000000e+04
-6.242879687500000000e+04
-6.242784375000000000e+04
-6.242946093750000000e+04
-6.242973828125000000e+04
-6.242937109375000000e+04
-6.242912890625000000e+04
-6.242831250000000000e+04
-6.242957031250000000e+04
-6.242976171875000000e+04
-6.243053515625000000e+04
-6.242937500000000000e+04
-6.242927343750000000e+04
-6.242920312500000000e+04
-6.242772656250000000e+04
-6.242924609375000000e+04
-6.242957031250000000e+04
-6.244222656250000000e+04
-6.242548437500000000e+04
-6.242364062500000000e+04
-6.242096093750000000e+04
-6.241617187500000000e+04
-6.241502734375000000e+04
-6.241371875000000000e+04
-6.241291796875000000e+04
-6.241517187500000000e+04
-6.241414062500000000e+04
-6.241282031250000000e+04
-6.241322265625000000e+04
-6.241134765625000000e+04
-6.241349218750000000e+04
-6.241365625000000000e+04
-6.241483203125000000e+04
-6.241445703125000000e+04
-6.241266406250000000e+04
-6.241274609375000000e+04
-6.241434375000000000e+04
-6.241373828125000000e+04
-6.241362890625000000e+04
-6.241458593750000000e+04
-6.241524218750000000e+04
-6.241711328125000000e+04
-6.241643750000000000e+04
-6.241296484375000000e+04
-6.241332031250000000e+04
-6.241133984375000000e+04
-6.241252734375000000e+04
-6.241291015625000000e+04
-6.241471093750000000e+04
-6.241426171875000000e+04
-6.241428515625000000e+04
-6.241073046875000000e+04
-6.241256250000000000e+04
-6.241405078125000000e+04
-6.241398828125000000e+04
-6.241238671875000000e+04
-6.241268359375000000e+04
-6.241117968750000000e+04
-6.241183593750000000e+04
-6.241433203125000000e+04
-6.244222656250000000e+04
-6.241704687500000000e+04
-6.241554687500000000e+04
-6.240686718750000000e+04
-6.240087109375000000e+04
-6.239688281250000000e+04
-6.239282812500000000e+04
-6.239282812500000000e+04
-6.239413281250000000e+04
-6.239258593750000000e+04
-6.239199609375000000e+04
-6.239312109375000000e+04
-6.238913281250000000e+04
-6.238646093750000000e+04
-6.239010156250000000e+04
-6.238808203125000000e+04
-6.239090234375000000e+04
-6.238855859375000000e+04
-6.239090234375000000e+04
-6.238537109375000000e+04
-6.238391015625000000e+04
-6.238567578125000000e+04
-6.238942187500000000e+04
-6.238697656250000000e+04
-6.238968750000000000e+04
-6.238813281250000000e+04
-6.238837500000000000e+04
-6.238979296875000000e+04
-6.238987500000000000e+04
-6.239029296875000000e+04
-6.239084765625000000e+04
-6.239045312500000000e+04
-6.238582031250000000e+04
-6.238941796875000000e+04
-6.238929296875000000e+04
-6.239033203125000000e+04
-6.239216796875000000e+04
-6.239170703125000000e+04
-6.238776562500000000e+04
-6.238969140625000000e+04
-6.238633984375000000e+04
-6.238548828125000000e+04
-6.238799218750000000e+04
-6.238726171875000000e+04
-6.238937890625000000e+04
-6.238888671875000000e+04
-6.238996484375000000e+04
-6.243469140625000000e+04
-6.243370312500000000e+04
-6.243267578125000000e+04
-6.243043750000000000e+04
-6.242964453125000000e+04
-6.242951171875000000e+04
-6.243019921875000000e+04
-6.243088671875000000e+04
-6.243210546875000000e+04
-6.243046093750000000e+04
-6.243008203125000000e+04
-6.243029687500000000e+04
-6.243044531250000000e+04
-6.243119140625000000e+04
-6.242980078125000000e+04
-6.243001171875000000e+04
-6.243009765625000000e+04
-6.243080859375000000e+04
-6.243091796875000000e+04
-6.243112890625000000e+04
-6.242869531250000000e+04
-6.242943359375000000e+04
-6.242945703125000000e+04
-6.243045312500000000e+04
-6.243040625000000000e+04
-6.243169531250000000e+04
-6.242984375000000000e+04
-6.243029687500000000e+04
-6.242920703125000000e+04
-6.243038281250000000e+04
-6.243116406250000000e+04
-6.243127343750000000e+04
-6.243050000000000000e+04
-6.243032812500000000e+04
-6.242948828125000000e+04
-6.242982812500000000e+04
-6.243053125000000000e+04
-6.243088671875000000e+04
-6.242971093750000000e+04
-6.242943750000000000e+04
-6.243003125000000000e+04
-6.243037500000000000e+04
-6.242736718750000000e+04
-6.242471093750000000e+04
-6.242246875000000000e+04
-6.241746484375000000e+04
-6.241510937500000000e+04
-6.241188281250000000e+04
-6.241384765625000000e+04
-6.241551562500000000e+04
-6.241662109375000000e+04
-6.241801171875000000e+04
-6.241619531250000000e+04
-6.241478906250000000e+04
-6.241519140625000000e+04
-6.241386718750000000e+04
-6.241647656250000000e+04
-6.241501953125000000e+04
-6.241683203125000000e+04
-6.241757421875000000e+04
-6.241309765625000000e+04
-6.240984375000000000e+04
-6.241310546875000000e+04
-6.241175000000000000e+04
-6.241685546875000000e+04
-6.241583203125000000e+04
-6.241373437500000000e+04
-6.241347265625000000e+04
-6.241489843750000000e+04
-6.241321484375000000e+04
-6.241550390625000000e+04
-6.241277343750000000e+04
-6.241578515625000000e+04
-6.241320312500000000e+04
-6.241360546875000000e+04
-6.241145703125000000e+04
-6.241448437500000000e+04
-6.241283593750000000e+04
-6.241213281250000000e+04
-6.241070312500000000e+04
-6.241072265625000000e+04
-6.241233984375000000e+04
-6.241101562500000000e+04
-6.241346484375000000e+04
-6.241275781250000000e+04
-6.240884375000000000e+04
-6.241136718750000000e+04
-6.241300390625000000e+04
-6.241849218750000000e+04
-6.241699609375000000e+04
-6.241274609375000000e+04
-6.240076562500000000e+04
-6.239483203125000000e+04
-6.239339062500000000e+04
-6.238833203125000000e+04
-6.238996875000000000e+04
-6.239231640625000000e+04
-6.239509765625000000e+04
-6.239272265625000000e+04
-6.239404296875000000e+04
-6.239235156250000000e+04
-6.239174218750000000e+04
-6.239249609375000000e+04
-6.239140625000000000e+04
-6.239038281250000000e+04
-6.239155078125000000e+04
-6.239017968750000000e+04
-6.239364062500000000e+04
-6.239200390625000000e+04
-6.238783984375000000e+04
-6.238555078125000000e+04
-6.238479296875000000e+04
-6.238499609375000000e+04
-6.238723828125000000e+04
-6.238803906250000000e+04
-6.239025781250000000e+04
-6.238626562500000000e+04
-6.238748437500000000e+04
-6.238799609375000000e+04
-6.238739453125000000e+04
-6.238744531250000000e+04
-6.238730078125000000e+04
-6.238733984375000000e+04
-6.238628515625000000e+04
-6.238807421875000000e+04
-6.238982031250000000e+04
-6.238826171875000000e+04
-6.238633593750000000e+04
-6.238485546875000000e+04
-6.239048046875000000e+04
-6.239220312500000000e+04
-6.244065234375000000e+04
-6.243324218750000000e+04
-6.243234765625000000e+04
-6.243123828125000000e+04
-6.243086328125000000e+04
-6.242910156250000000e+04
-6.243004687500000000e+04
-6.243051562500000000e+04
-6.243083593750000000e+04
-6.243057421875000000e+04
-6.242942187500000000e+04
-6.243025390625000000e+04
-6.243047265625000000e+04
-6.243065234375000000e+04
-6.243133203125000000e+04
-6.242927343750000000e+04
-6.242943750000000000e+04
-6.243017578125000000e+04
-6.243053906250000000e+04
-6.242935546875000000e+04
-6.242987890625000000e+04
-6.243026562500000000e+04
-6.242949218750000000e+04
-6.243043750000000000e+04
-6.243064843750000000e+04
-6.242917578125000000e+04
-6.242971484375000000e+04
-6.243082031250000000e+04
-6.243018750000000000e+04
-6.242899609375000000e+04
-6.243005859375000000e+04
-6.243034375000000000e+04
-6.243039062500000000e+04
-6.243085546875000000e+04
-6.243046875000000000e+04
-6.243039062500000000e+04
-6.242953125000000000e+04
-6.242992578125000000e+04
-6.242937500000000000e+04
-6.243026171875000000e+04
-6.242955078125000000e+04
-6.242867968750000000e+04
-6.242973828125000000e+04
-6.242952734375000000e+04
-6.243034765625000000e+04
-6.243035937500000000e+04
-6.244065234375000000e+04
-6.242527734375000000e+04
-6.242235546875000000e+04
-6.241993359375000000e+04
-6.241687890625000000e+04
-6.241273828125000000e+04
-6.241054296875000000e+04
-6.241197265625000000e+04
-6.241379687500000000e+04
-6.241546875000000000e+04
-6.241571484375000000e+04
-6.241506640625000000e+04
-6.241404687500000000e+04
-6.241324218750000000e+04
-6.241587500000000000e+04
-6.241399218750000000e+04
-6.241515625000000000e+04
-6.241121484375000000e+04
-6.241037890625000000e+04
-6.241195703125000000e+04
-6.241149218750000000e+04
-6.241508203125000000e+04
-6.241262890625000000e+04
-6.241236718750000000e+04
-6.241258593750000000e+04
-6.241208984375000000e+04
-6.241069921875000000e+04
-6.241196875000000000e+04
-6.241481640625000000e+04
-6.241308984375000000e+04
-6.241271093750000000e+04
-6.241270703125000000e+04
-6.241311328125000000e+04
-6.241230078125000000e+04
-6.241308593750000000e+04
-6.241285546875000000e+04
-6.241080078125000000e+04
-6.241347265625000000e+04
-6.241298828125000000e+04
-6.241262109375000000e+04
-6.241366406250000000e+04
-6.241519140625000000e+04
-6.241587890625000000e+04
-6.241256250000000000e+04
-6.241247265625000000e+04
-6.241030859375000000e+04
-6.241425000000000000e+04
-6.241588671875000000e+04
-6.244065234375000000e+04
-6.241737890625000000e+04
-6.240769140625000000e+04
-6.240451171875000000e+04
-6.239935156250000000e+04
-6.239162500000000000e+04
-6.238988671875000000e+04
-6.238607031250000000e+04
-6.238671093750000000e+04
-6.239104687500000000e+04
-6.238996875000000000e+04
-6.239284765625000000e+04
-6.239401562500000000e+04
-6.239178125000000000e+04
-6.238912890625000000e+04
-6.238673828125000000e+04
-6.239392187500000000e+04
-6.239312890625000000e+04
-6.239185156250000000e+04
-6.239096875000000000e+04
-6.238642578125000000e+04
-6.238514843750000000e+04
-6.238822265625000000e+04
-6.239178125000000000e+04
-6.239059375000000000e+04
-6.239026171875000000e+04
-6.238953515625000000e+04
-6.238849218750000000e+04
-6.239010156250000000e+04
-6.238601953125000000e+04
-6.238587500000000000e+04
-6.238628906250000000e+04
-6.238988671875000000e+04
-6.238880078125000000e+04
-6.239041796875000000e+04
-6.238583984375000000e+04
-6.238773046875000000e+04
-6.238742187500000000e+04
-6.238834375000000000e+04
-6.238895703125000000e+04
-6.238953906250000000e+04
-6.239101171875000000e+04
-6.238832421875000000e+04
-6.238614453125000000e+04
-6.243370703125000000e+04
-6.243374609375000000e+04
-6.243209765625000000e+04
-6.243094531250000000e+04
-6.243051171875000000e+04
-6.243144140625000000e+04
-6.243111328125000000e+04
-6.243103125000000000e+04
-6.243191406250000000e+04
-6.243113671875000000e+04
-6.243013281250000000e+04
-6.242995703125000000e+04
-6.243026562500000000e+04
-6.243091796875000000e+04
-6.243245312500000000e+04
-6.243150781250000000e+04
-6.243057812500000000e+04
-6.243089453125000000e+04
-6.243039453125000000e+04
-6.243017968750000000e+04
-6.243020703125000000e+04
-6.243095703125000000e+04
-6.243086328125000000e+04
-6.243052734375000000e+04
-6.243007812500000000e+04
-6.243143750000000000e+04
-6.243071093750000000e+04
-6.243120312500000000e+04
-6.243124218750000000e+04
-6.243066796875000000e+04
-6.243144140625000000e+04
-6.243057812500000000e+04
-6.243019531250000000e+04
-6.243137500000000000e+04
-6.243167968750000000e+04
-6.243162890625000000e+04
-6.243043359375000000e+04
-6.243121875000000000e+04
-6.243039453125000000e+04
-6.243167578125000000e+04
-6.243105078125000000e+04
-6.243032421875000000e+04
-6.243092968750000000e+04
-6.243189453125000000e+04
-6.243155468750000000e+04
-6.243118359375000000e+04
-6.242614062500000000e+04
-6.242498828125000000e+04
-6.242167968750000000e+04
-6.241541406250000000e+04
-6.241368359375000000e+04
-6.241283593750000000e+04
-6.241110937500000000e+04
-6.241616015625000000e+04
-6.241626171875000000e+04
-6.241307031250000000e+04
-6.241439062500000000e+04
-6.241288281250000000e+04
-6.241306250000000000e+04
-6.241419531250000000e+04
-6.241394921875000000e+04
-6.241388281250000000e+04
-6.241605468750000000e+04
-6.241333203125000000e+04
-6.241173046875000000e+04
-6.241284375000000000e+04
-6.241410156250000000e+04
-6.241511718750000000e+04
-6.241483203125000000e+04
-6.241353906250000000e+04
-6.241312500000000000e+04
-6.241471484375000000e+04
-6.241569531250000000e+04
-6.241525390625000000e+04
-6.241299609375000000e+04
-6.241190234375000000e+04
-6.241212890625000000e+04
-6.241234375000000000e+04
-6.241326953125000000e+04
-6.241483984375000000e+04
-6.241626953125000000e+04
-6.241626562500000000e+04
-6.241173046875000000e+04
-6.241024609375000000e+04
-6.241389843750000000e+04
-6.241508984375000000e+04
-6.241456640625000000e+04
-6.241544531250000000e+04
-6.241444921875000000e+04
-6.241144921875000000e+04
-6.241146875000000000e+04
-6.241842187500000000e+04
-6.241712109375000000e+04
-6.241094140625000000e+04
-6.240563671875000000e+04
-6.240184375000000000e+04
-6.239756640625000000e+04
-6.239366796875000000e+04
-6.239269140625000000e+04
-6.239131640625000000e+04
-6.239212500000000000e+04
-6.239364453125000000e+04
-6.238993359375000000e+04
-6.238938281250000000e+04
-6.238818750000000000e+04
-6.239354687500000000e+04
-6.238882812500000000e+04
-6.238745703125000000e+04
-6.238379687500000000e+04
-6.238522656250000000e+04
-6.238741406250000000e+04
-6.238755468750000000e+04
-6.238497656250000000e+04
-6.238576171875000000e+04
-6.238686718750000000e+04
-6.239023046875000000e+04
-6.238875000000000000e+04
-6.238669140625000000e+04
-6.238607812500000000e+04
-6.238854296875000000e+04
-6.239154687500000000e+04
-6.239121875000000000e+04
-6.238919140625000000e+04
-6.239126171875000000e+04
-6.239018750000000000e+04
-6.238692187500000000e+04
-6.238845312500000000e+04
-6.238551562500000000e+04
-6.238638281250000000e+04
-6.238276562500000000e+04
-6.238109765625000000e+04
-6.238385937500000000e+04
-6.238342187500000000e+04
-6.243378515625000000e+04
-6.243201171875000000e+04
-6.243095312500000000e+04
-6.242985937500000000e+04
-6.242944140625000000e+04
-6.243051171875000000e+04
-6.243055468750000000e+04
-6.243000390625000000e+04
-6.243164062500000000e+04
-6.243054296875000000e+04
-6.243088671875000000e+04
-6.243107031250000000e+04
-6.242935546875000000e+04
-6.242906640625000000e+04
-6.243008984375000000e+04
-6.242966796875000000e+04
-6.243092187500000000e+04
-6.242976562500000000e+04
-6.242940625000000000e+04
-6.242974218750000000e+04
-6.243131640625000000e+04
-6.243030468750000000e+04
-6.243044140625000000e+04
-6.242898437500000000e+04
-6.243017968750000000e+04
-6.242983984375000000e+04
-6.242999218750000000e+04
-6.242980859375000000e+04
-6.242895312500000000e+04
-6.242909375000000000e+04
-6.243036328125000000e+04
-6.243015625000000000e+04
-6.242989062500000000e+04
-6.242989062500000000e+04
-6.242815234375000000e+04
-6.242984375000000000e+04
-6.243071875000000000e+04
-6.243062890625000000e+04
-6.242903906250000000e+04
-6.242785156250000000e+04
-6.242541015625000000e+04
-6.242448046875000000e+04
-6.242043750000000000e+04
-6.241979296875000000e+04
-6.241578515625000000e+04
-6.241354687500000000e+04
-6.241296875000000000e+04
-6.241600390625000000e+04
-6.241503125000000000e+04
-6.241582421875000000e+04
-6.241413671875000000e+04
-6.241465625000000000e+04
-6.241476562500000000e+04
-6.241347656250000000e+04
-6.241404687500000000e+04
-6.241390625000000000e+04
-6.241617187500000000e+04
-6.241456250000000000e+04
-6.241315234375000000e+04
-6.241448828125000000e+04
-6.241683593750000000e+04
-6.241724609375000000e+04
-6.241707812500000000e+04
-6.241641796875000000e+04
-6.241403515625000000e+04
-6.241565625000000000e+04
-6.241441406250000000e+04
-6.241592968750000000e+04
-6.241220312500000000e+04
-6.241333984375000000e+04
-6.241353125000000000e+04
-6.241843750000000000e+04
-6.241605078125000000e+04
-6.241510546875000000e+04
-6.241409375000000000e+04
-6.241362500000000000e+04
-6.241394921875000000e+04
-6.241552734375000000e+04
-6.241579687500000000e+04
-6.241816015625000000e+04
-6.241788281250000000e+04
-6.241619531250000000e+04
-6.241520312500000000e+04
-6.241358984375000000e+04
-6.241503906250000000e+04
-6.241448828125000000e+04
-6.241605468750000000e+04
-6.241877343750000000e+04
-6.241676171875000000e+04
-6.240792187500000000e+04
-6.240336718750000000e+04
-6.239872265625000000e+04
-6.239222265625000000e+04
-6.239167578125000000e+04
-6.239315234375000000e+04
-6.239310546875000000e+04
-6.239104296875000000e+04
-6.239157421875000000e+04
-6.238625000000000000e+04
-6.239015625000000000e+04
-6.238985546875000000e+04
-6.239237500000000000e+04
-6.239231250000000000e+04
-6.239192578125000000e+04
-6.238869531250000000e+04
-6.238598046875000000e+04
-6.238848046875000000e+04
-6.238689453125000000e+04
-6.239315625000000000e+04
-6.239243359375000000e+04
-6.239071484375000000e+04
-6.239086718750000000e+04
-6.238761328125000000e+04
-6.238667578125000000e+04
-6.238846875000000000e+04
-6.238833984375000000e+04
-6.238965234375000000e+04
-6.238632031250000000e+04
-6.238694140625000000e+04
-6.238946484375000000e+04
-6.239039453125000000e+04
-6.238948437500000000e+04
-6.238673046875000000e+04
-6.238730468750000000e+04
-6.238660937500000000e+04
-6.238748437500000000e+04
-6.238802343750000000e+04
-6.238821484375000000e+04
-6.238849609375000000e+04
-6.238359375000000000e+04
-6.243348046875000000e+04
-6.243228515625000000e+04
-6.243172265625000000e+04
-6.242923437500000000e+04
-6.242967187500000000e+04
-6.242982812500000000e+04
-6.243103515625000000e+04
-6.243047656250000000e+04
-6.242905078125000000e+04
-6.242925000000000000e+04
-6.242871484375000000e+04
-6.243007031250000000e+04
-6.243048437500000000e+04
-6.243133984375000000e+04
-6.242977343750000000e+04
-6.243062500000000000e+04
-6.242961718750000000e+04
-6.242933593750000000e+04
-6.243041406250000000e+04
-6.243117578125000000e+04
-6.242932421875000000e+04
-6.243004687500000000e+04
-6.242860156250000000e+04
-6.243024218750000000e+04
-6.242478125000000000e+04
-6.242981640625000000e+04
-6.243014453125000000e+04
-6.242893359375000000e+04
-6.243037890625000000e+04
-6.243071093750000000e+04
-6.243037109375000000e+04
-6.242975781250000000e+04
-6.243031640625000000e+04
-6.243053125000000000e+04
-6.242947265625000000e+04
-6.242960156250000000e+04
-6.243014062500000000e+04
-6.242967187500000000e+04
-6.242992968750000000e+04
-6.242994531250000000e+04
-6.243005468750000000e+04
-6.242621484375000000e+04
-6.241922265625000000e+04
-6.241815234375000000e+04
-6.241527343750000000e+04
-6.241245703125000000e+04
-6.241276171875000000e+04
-6.241380468750000000e+04
-6.241335546875000000e+04
-6.241605468750000000e+04
-6.241417578125000000e+04
-6.241318359375000000e+04
-6.241175000000000000e+04
-6.241384765625000000e+04
-6.241360156250000000e+04
-6.241491406250000000e+04
-6.241510156250000000e+04
-6.241505859375000000e+04
-6.241403515625000000e+04
-6.241450000000000000e+04
-6.241537109375000000e+04
-6.241551953125000000e+04
-6.241525781250000000e+04
-6.241282031250000000e+04
-6.241012109375000000e+04
-6.241187109375000000e+04
-6.241172265625000000e+04
-6.241385937500000000e+04
-6.241433203125000000e+04
-6.241516015625000000e+04
-6.241392968750000000e+04
-6.241400390625000000e+04
-6.241013281250000000e+04
-6.241276953125000000e+04