1.230575323104858398e+00 1.470535278320312500e+01 -8.969227790832519531e+00 1.470535278320312500e+01 -7.591724395751953125e+01 -9.322283744812011719e+00 -8.969227790832519531e+00 -9.322283744812011719e+00 -6.067136764526367188e+01
2.795394134521484375e+01 4.868132591247558594e+00 -7.963944673538208008e-01 4.868132591247558594e+00 -4.917769908905029297e+00 -7.205398559570312500e+00 -7.963944673538208008e-01 -7.205398559570312500e+00 1.778720092773437500e+01
-1.352931594848632812e+01 3.342370033264160156e+00 -3.090143203735351562e+00 3.342370033264160156e+00 -1.143259716033935547e+01 -7.610687017440795898e-01 -3.090143203735351562e+00 -7.610687017440795898e-01 -4.956103801727294922e+00
-4.729958176612854004e-01 1.607587933540344238e+00 -9.923307418823242188e+00 1.607587933540344238e+00 -1.658186531066894531e+01 -4.067953586578369141e+00 -9.923307418823242188e+00 -4.067953586578369141e+00 -1.601025700569152832e+00
6.853228569030761719e+00 9.307800292968750000e+00 -1.219917678833007812e+01 9.307800292968750000e+00 -2.187295913696289062e+01 6.641962051391601562e+00 -1.219917678833007812e+01 6.641962051391601562e+00 -1.700481224060058594e+01
1.514535331726074219e+01 5.424380779266357422e+00 -5.763866901397705078e+00 5.424380779266357422e+00 -1.831331825256347656e+01 5.965819358825683594e-01 -5.763866901397705078e+00 5.965819358825683594e-01 -9.933754920959472656e+00
-9.794754981994628906e-01 -6.466564178466796875e+00 -4.928654193878173828e+00 -6.466564178466796875e+00 -3.647048473358154297e+00 1.936012744903564453e+00 -4.928654193878173828e+00 1.936012744903564453e+00 -1.041092872619628906e+01
-2.713006734848022461e-01 9.956930160522460938e+00 2.968462705612182617e+00 9.956930160522460938e+00 -2.361800765991210938e+01 -6.975845336914062500e+00 2.968462705612182617e+00 -6.975845336914062500e+00 -1.263713932037353516e+01
4.293622970581054688e+00 1.506440758705139160e+00 -1.421903228759765625e+01 1.506440758705139160e+00 -6.552817821502685547e+00 -1.178005337715148926e+00 -1.421903228759765625e+01 -1.178005337715148926e+00 -1.335742378234863281e+01
6.794065237045288086e-01 1.351690769195556641e+01 -8.870238304138183594e+00 1.351690769195556641e+01 -3.038592338562011719e+00 5.215955734252929688e+00 -8.870238304138183594e+00 5.215955734252929688e+00 1.115492248535156250e+01
-1.320628452301025391e+01 -2.788340330123901367e+00 -8.772864341735839844e+00 -2.788340330123901367e+00 -1.239963150024414062e+01 -4.177115440368652344e+00 -8.772864341735839844e+00 -4.177115440368652344e+00 -1.353242969512939453e+01
1.967787170410156250e+01 -2.911210298538208008e+00 -1.229112243652343750e+01 -2.911210298538208008e+00 7.246630191802978516e+00 -7.032598018646240234e+00 -1.229112243652343750e+01 -7.032598018646240234e+00 5.583967685699462891e+00
-3.187268733978271484e+00 3.378047943115234375e+00 4.474726200103759766e+00 3.378047943115234375e+00 -2.223833847045898438e+01 3.013646125793457031e+00 4.474726200103759766e+00 3.013646125793457031e+00 -2.017461013793945312e+01
8.139482736587524414e-01 -1.221763849258422852e+00 1.097280144691467285e+00 -1.221763849258422852e+00 -1.895175361633300781e+01 -6.159651279449462891e+00 1.097280144691467285e+00 -6.159651279449462891e+00 -1.371881866455078125e+01
1.136890125274658203e+01 6.791275978088378906e+00 -6.390330791473388672e+00 6.791275978088378906e+00 -6.211812973022460938e+00 4.548672676086425781e+00 -6.390330791473388672e+00 4.548672676086425781e+00 -1.803119540214538574e+00
6.235275268554687500e+00 1.585380744934082031e+01 -1.321455574035644531e+01 1.585380744934082031e+01 -1.351388168334960938e+01 -8.254936218261718750e+00 -1.321455574035644531e+01 -8.254936218261718750e+00 1.502376937866210938e+01
-1.378703117370605469e+01 -6.979212760925292969e-01 -3.267960548400878906e+00 -6.979212760925292969e-01 -3.403413009643554688e+01 3.914453506469726562e+00 -3.267960548400878906e+00 3.914453506469726562e+00 -1.778635597229003906e+01
1.357610321044921875e+01 3.684393167495727539e+00 4.182066440582275391e+00 3.684393167495727539e+00 -3.970563173294067383e+00 1.878914237022399902e+00 4.182066440582275391e+00 1.878914237022399902e+00 -3.749311447143554688e+00
8.148300170898437500e+00 -5.481827259063720703e-01 -1.718557357788085938e+01 -5.481827259063720703e-01 -6.828496456146240234e+00 2.060491085052490234e+00 -1.718557357788085938e+01 2.060491085052490234e+00 -1.569176316261291504e+00
-2.878868579864501953e+00 3.282514810562133789e+00 -1.596088504791259766e+01 3.282514810562133789e+00 -3.000444221496582031e+01 1.954181790351867676e+00 -1.596088504791259766e+01 1.954181790351867676e+00 -2.177632713317871094e+01
-9.821417808532714844e+00 9.740195274353027344e+00 1.909981727600097656e+00 9.740195274353027344e+00 -1.760923385620117188e+01 -3.871935844421386719e+00 1.909981727600097656e+00 -3.871935844421386719e+00 1.102357625961303711e+00
-4.594140052795410156e+00 8.242481231689453125e+00 -4.361915588378906250e+00 8.242481231689453125e+00 -1.821417617797851562e+01 -8.489778518676757812e+00 -4.361915588378906250e+00 -8.489778518676757812e+00 1.300339031219482422e+01
1.049923992156982422e+01 2.375525951385498047e+00 -2.402916669845581055e+00 2.375525951385498047e+00 -2.505112648010253906e+00 6.353147983551025391e+00 -2.402916669845581055e+00 6.353147983551025391e+00 1.825553131103515625e+01
-9.581214904785156250e+00 2.685099124908447266e+00 -4.617167472839355469e+00 2.685099124908447266e+00 -2.822427749633789062e+01 -5.757628381252288818e-02 -4.617167472839355469e+00 -5.757628381252288818e-02 -1.341246795654296875e+01
8.037674903869628906e+00 6.470236778259277344e+00 -1.756722068786621094e+01 6.470236778259277344e+00 -1.110213088989257812e+01 -1.395096111297607422e+01 -1.756722068786621094e+01 -1.395096111297607422e+01 -6.406664371490478516e+00
1.077295899391174316e+00 -2.221079587936401367e+00 4.852111339569091797e+00 -2.221079587936401367e+00 -2.175452613830566406e+01 -2.874059915542602539e+00 4.852111339569091797e+00 -2.874059915542602539e+00 -1.525212669372558594e+01
1.843895721435546875e+01 -6.545324921607971191e-01 -7.008810043334960938e+00 -6.545324921607971191e-01 -1.510518789291381836e+00 6.121434211730957031e+00 -7.008810043334960938e+00 6.121434211730957031e+00 -1.172840356826782227e+00
1.534545063972473145e+00 2.231167316436767578e+00 -1.126759767532348633e+00 2.231167316436767578e+00 -1.227558803558349609e+01 1.825798273086547852e+00 -1.126759767532348633e+00 1.825798273086547852e+00 3.741933107376098633e+00
-4.352340698242187500e+00 8.381035804748535156e+00 -8.694941997528076172e-01 8.381035804748535156e+00 -1.852626228332519531e+01 8.816820979118347168e-01 -8.694941997528076172e-01 8.816820979118347168e-01 -2.332612037658691406e+01
-1.789802789688110352e+00 9.747445106506347656e+00 -6.363295078277587891e+00 9.747445106506347656e+00 -1.628781890869140625e+01 3.983110904693603516e+00 -6.363295078277587891e+00 3.983110904693603516e+00 7.174306869506835938e+00
8.732496261596679688e+00 3.060656547546386719e+00 1.268445253372192383e+00 3.060656547546386719e+00 -9.202500343322753906e+00 2.807994127273559570e+00 1.268445253372192383e+00 2.807994127273559570e+00 -6.378953933715820312e+00
1.027760791778564453e+01 2.964587926864624023e+00 -2.625433683395385742e+00 2.964587926864624023e+00 -1.788120841979980469e+01 3.931677579879760742e+00 -2.625433683395385742e+00 3.931677579879760742e+00 -7.935356140136718750e+00
-4.909173011779785156e+00 -8.129511833190917969e+00 -1.456248378753662109e+01 -8.129511833190917969e+00 -8.725383758544921875e+00 6.923407316207885742e-01 -1.456248378753662109e+01 6.923407316207885742e-01 -2.837171554565429688e+00
8.030207633972167969e+00 4.069102764129638672e+00 -4.549002170562744141e+00 4.069102764129638672e+00 -1.272968101501464844e+01 -1.039908313751220703e+01 -4.549002170562744141e+00 -1.039908313751220703e+01 2.721707582473754883e+00
1.544605064392089844e+01 3.062621355056762695e+00 -5.399178981781005859e+00 3.062621355056762695e+00 -2.097669601440429688e+01 -2.739125490188598633e+00 -5.399178981781005859e+00 -2.739125490188598633e+00 -1.342435836791992188e+01
1.555562496185302734e+01 1.713323950767517090e+00 3.546186685562133789e+00 1.713323950767517090e+00 -1.874938392639160156e+01 -1.068986654281616211e+00 3.546186685562133789e+00 -1.068986654281616211e+00 1.709353446960449219e+01
4.402007579803466797e+00 -2.614089012145996094e+00 -1.051750755310058594e+01 -2.614089012145996094e+00 -1.990600585937500000e+01 -9.361967444419860840e-01 -1.051750755310058594e+01 -9.361967444419860840e-01 -1.528540992736816406e+01
1.031909584999084473e-01 4.371928691864013672e+00 4.374718666076660156e+00 4.371928691864013672e+00 1.299481034278869629e+00 -1.143667030334472656e+01 4.374718666076660156e+00 -1.143667030334472656e+01 -7.848027229309082031e+00
9.139559745788574219e+00 1.684935450553894043e+00 -9.375885009765625000e+00 1.684935450553894043e+00 -1.538191127777099609e+01 -7.360070705413818359e+00 -9.375885009765625000e+00 -7.360070705413818359e+00 -3.427943801879882812e+01
8.667230010032653809e-01 5.940056324005126953e+00 -1.192997646331787109e+01 5.940056324005126953e+00 -3.010762596130371094e+01 -3.167021512985229492e+00 -1.192997646331787109e+01 -3.167021512985229492e+00 -1.424419021606445312e+01
2.090461730957031250e+01 1.071020007133483887e+00 7.820776939392089844e+00 1.071020007133483887e+00 -1.016779327392578125e+01 -3.270086765289306641e+00 7.820776939392089844e+00 -3.270086765289306641e+00 1.692620277404785156e+01
3.252303600311279297e+00 1.168852686882019043e+00 -5.384275913238525391e+00 1.168852686882019043e+00 -1.935677146911621094e+01 -9.890258789062500000e+00 -5.384275913238525391e+00 -9.890258789062500000e+00 -1.817273139953613281e+01
-4.349379539489746094e+00 1.380850028991699219e+01 -4.825621128082275391e+00 1.380850028991699219e+01 -8.692210197448730469e+00 -6.895677089691162109e+00 -4.825621128082275391e+00 -6.895677089691162109e+00 -1.166649723052978516e+01
-8.930865675210952759e-02 -3.293316841125488281e+00 -8.634123802185058594e+00 -3.293316841125488281e+00 -1.196960926055908203e+01 -1.098042774200439453e+01 -8.634123802185058594e+00 -1.098042774200439453e+01 1.295369720458984375e+01
7.547828197479248047e+00 7.026379585266113281e+00 -1.502833938598632812e+01 7.026379585266113281e+00 -2.394367408752441406e+01 2.191684097051620483e-01 -1.502833938598632812e+01 2.191684097051620483e-01 -4.905189514160156250e+00
5.869185924530029297e+00 2.492909193038940430e+00 -1.783212471008300781e+01 2.492909193038940430e+00 -2.183724021911621094e+01 -2.261463165283203125e+00 -1.783212471008300781e+01 -2.261463165283203125e+00 -2.533304214477539062e+01
1.230575323104858398e+00 1.470535278320312500e+01 -8.969227790832519531e+00 1.470535278320312500e+01 -7.591724395751953125e+01 -9.322283744812011719e+00 -8.969227790832519531e+00 -9.322283744812011719e+00 -6.067136764526367188e+01
-2.270485496520996094e+01 1.237790393829345703e+01 -3.515632867813110352e+00 1.237790393829345703e+01 -2.095706176757812500e+01 5.930922985076904297e+00 -3.515632867813110352e+00 5.930922985076904297e+00 -5.086945533752441406e+00
-2.737981081008911133e+00 1.835885429382324219e+01 -4.269190311431884766e+00 1.835885429382324219e+01 -3.315571975708007812e+01 -1.402629947662353516e+01 -4.269190311431884766e+00 -1.402629947662353516e+01 1.860318374633789062e+01
1.248787307739257812e+01 9.440367698669433594e+00 -1.327592372894287109e+01 9.440367698669433594e+00 -2.330416297912597656e+01 -1.926632881164550781e+01 -1.327592372894287109e+01 -1.926632881164550781e+01 -6.379153251647949219e+00
-1.830585289001464844e+01 4.084619045257568359e+00 -2.168924808502197266e+00 4.084619045257568359e+00 -2.111882400512695312e+01 -5.723573207855224609e+00 -2.168924808502197266e+00 -5.723573207855224609e+00 -1.574099254608154297e+01
-4.382240676879882812e+01 -5.364347457885742188e+00 1.065293121337890625e+01 -5.364347457885742188e+00 -3.185596466064453125e+01 2.983176469802856445e+00 1.065293121337890625e+01 2.983176469802856445e+00 9.143454581499099731e-02
-1.473553848266601562e+01 1.373005199432373047e+01 -1.436527371406555176e+00 1.373005199432373047e+01 -3.214341354370117188e+01 -1.140139007568359375e+01 -1.436527371406555176e+00 -1.140139007568359375e+01 -4.972593307495117188e+00
-9.182737350463867188e+00 -4.257718086242675781e+00 -1.422546863555908203e+01 -4.257718086242675781e+00 -3.060565948486328125e+01 -3.260291814804077148e-01 -1.422546863555908203e+01 -3.260291814804077148e-01 -2.127233505249023438e+01
-2.740744829177856445e+00 4.663644313812255859e+00 -1.368858909606933594e+01 4.663644313812255859e+00 5.157485485076904297e+00 3.623812675476074219e+00 -1.368858909606933594e+01 3.623812675476074219e+00 -1.727581024169921875e+01
-2.766555786132812500e+00 1.607138061523437500e+01 -3.758408546447753906e+00 1.607138061523437500e+01 -3.630311965942382812e+01 -1.439853286743164062e+01 -3.758408546447753906e+00 -1.439853286743164062e+01 1.718928813934326172e+00
1.231383895874023438e+01 -1.093013191223144531e+01 -5.988730862736701965e-02 -1.093013191223144531e+01 -1.158466148376464844e+01 -9.719306945800781250e+00 -5.988730862736701965e-02 -9.719306945800781250e+00 -1.237353897094726562e+01
4.299865722656250000e+00 -1.371659088134765625e+01 -2.257577657699584961e+00 -1.371659088134765625e+01 -7.271939277648925781e+00 6.276218414306640625e+00 -2.257577657699584961e+00 6.276218414306640625e+00 -1.685597801208496094e+01
-2.597896957397460938e+01 6.632974147796630859e+00 -3.325839281082153320e+00 6.632974147796630859e+00 -2.996045875549316406e+01 -4.684489250183105469e+00 -3.325839281082153320e+00 -4.684489250183105469e+00 -1.454225826263427734e+01
8.520380973815917969e+00 2.111545181274414062e+01 -1.198549938201904297e+01 2.111545181274414062e+01 -2.698648262023925781e+01 -1.993406105041503906e+01 -1.198549938201904297e+01 -1.993406105041503906e+01 -1.666768264770507812e+01
-1.940171051025390625e+01 -2.592002153396606445e-01 -7.785803794860839844e+00 -2.592002153396606445e-01 -4.038516235351562500e+01 1.394711375236511230e+00 -7.785803794860839844e+00 1.394711375236511230e+00 -1.816930770874023438e+01
3.975995540618896484e+00 -1.238311481475830078e+01 -4.310894966125488281e+00 -1.238311481475830078e+01 -2.097280120849609375e+01 -5.785171985626220703e+00 -4.310894966125488281e+00 -5.785171985626220703e+00 -2.191157150268554688e+01
1.851722908020019531e+01 -2.478589057922363281e+00 -4.872803211212158203e+00 -2.478589057922363281e+00 -1.217975044250488281e+01 -4.214010715484619141e+00 -4.872803211212158203e+00 -4.214010715484619141e+00 -4.797570705413818359e+00
-3.717303991317749023e+00 1.731394529342651367e+00 -1.361098670959472656e+01 1.731394529342651367e+00 -4.540058517456054688e+01 -9.710747718811035156e+00 -1.361098670959472656e+01 -9.710747718811035156e+00 -2.296526718139648438e+01
2.508998870849609375e+00 9.927669525146484375e+00 -7.157419204711914062e+00 9.927669525146484375e+00 -3.188422918319702148e+00 -5.050806045532226562e+00 -7.157419204711914062e+00 -5.050806045532226562e+00 -5.147277355194091797e+00
-1.235038852691650391e+01 1.174988842010498047e+01 -1.074074363708496094e+01 1.174988842010498047e+01 -9.992230415344238281e+00 -1.260742187500000000e+01 -1.074074363708496094e+01 -1.260742187500000000e+01 -5.394383907318115234e+00
1.486967563629150391e+00 6.547132492065429688e+00 -9.562932014465332031e+00 6.547132492065429688e+00 -1.859068298339843750e+01 -1.414409279823303223e+00 -9.562932014465332031e+00 -1.414409279823303223e+00 -1.904509353637695312e+01
8.279848098754882812e+00 8.876454353332519531e+00 1.087693977355957031e+01 8.876454353332519531e+00 2.850681543350219727e+00 -5.726443767547607422e+00 1.087693977355957031e+01 -5.726443767547607422e+00 -1.959052681922912598e+00
-1.909281158447265625e+01 -1.873849272727966309e+00 -1.648467445373535156e+01 -1.873849272727966309e+00 1.820920944213867188e+00 7.012880802154541016e+00 -1.648467445373535156e+01 7.012880802154541016e+00 1.275932884216308594e+01
-2.335223007202148438e+01 2.516562700271606445e+00 -1.547698259353637695e+00 2.516562700271606445e+00 -3.357683944702148438e+01 -5.058486461639404297e+00 -1.547698259353637695e+00 -5.058486461639404297e+00 -3.781653594970703125e+01
2.766185188293457031e+01 -5.699422836303710938e+00 3.487159609794616699e-01 -5.699422836303710938e+00 5.232120513916015625e+00 -2.032240295410156250e+01 3.487159609794616699e-01 -2.032240295410156250e+01 -6.177208900451660156e+00
-2.050269842147827148e+00 4.706506729125976562e+00 -1.294374656677246094e+01 4.706506729125976562e+00 -2.483535957336425781e+01 -8.891714096069335938e+00 -1.294374656677246094e+01 -8.891714096069335938e+00 -4.313106918334960938e+01
1.730766892433166504e+00 -5.649592876434326172e+00 -1.025828742980957031e+01 -5.649592876434326172e+00 1.109581851959228516e+01 -6.939162254333496094e+00 -1.025828742980957031e+01 -6.939162254333496094e+00 1.572658061981201172e+00
-4.544918060302734375e+00 1.865314483642578125e+01 -5.669227838516235352e-01 1.865314483642578125e+01 3.542746305465698242e+00 -9.192932248115539551e-01 -5.669227838516235352e-01 -9.192932248115539551e-01 -2.183891296386718750e+00
-3.270900344848632812e+01 1.457855129241943359e+01 -1.829879188537597656e+01 1.457855129241943359e+01 -4.108703231811523438e+01 -1.042671298980712891e+01 -1.829879188537597656e+01 -1.042671298980712891e+01 -1.564387559890747070e+00
-1.817466354370117188e+01 1.098078346252441406e+01 -7.557088136672973633e-01 1.098078346252441406e+01 -2.242124366760253906e+01 -1.271211528778076172e+01 -7.557088136672973633e-01 -1.271211528778076172e+01 -1.870772361755371094e+01
-2.807827472686767578e+00 3.614022254943847656e+00 -6.845961570739746094e+00 3.614022254943847656e+00 -2.516204833984375000e+01 -2.148884057998657227e+00 -6.845961570739746094e+00 -2.148884057998657227e+00 -2.259893417358398438e+01
1.537202739715576172e+01 -8.926720619201660156e+00 -6.963201045989990234e+00 -8.926720619201660156e+00 -7.944278240203857422e+00 3.639313697814941406e+00 -6.963201045989990234e+00 3.639313697814941406e+00 -1.508905291557312012e+00
1.039835262298583984e+01 4.533569335937500000e+00 3.621568918228149414e+00 4.533569335937500000e+00 -1.763713479042053223e+00 -4.212728500366210938e+00 3.621568918228149414e+00 -4.212728500366210938e+00 -8.891326189041137695e-01
-2.340048027038574219e+01 5.003527641296386719e+00 -5.839978694915771484e+00 5.003527641296386719e+00 -2.757462310791015625e+01 4.611633777618408203e+00 -5.839978694915771484e+00 4.611633777618408203e+00 -9.129654884338378906e+00
-3.342572784423828125e+01 7.381227493286132812e+00 -9.345509529113769531e+00 7.381227493286132812e+00 -4.776049804687500000e+01 1.888388872146606445e+00 -9.345509529113769531e+00 1.888388872146606445e+00 -4.087277603149414062e+01
-2.572797203063964844e+01 2.120355415344238281e+01 1.315889739990234375e+01 2.120355415344238281e+01 -3.135540962219238281e+01 2.507035017013549805e+00 1.315889739990234375e+01 2.507035017013549805e+00 -7.508025646209716797e+00
-1.149599742889404297e+01 8.200098037719726562e+00 8.499382972717285156e+00 8.200098037719726562e+00 -1.367870235443115234e+01 1.131687164306640625e+00 8.499382972717285156e+00 1.131687164306640625e+00 -8.516807556152343750e+00
1.706666183471679688e+01 -3.661549806594848633e+00 -2.741713285446166992e+00 -3.661549806594848633e+00 -7.172117829322814941e-01 -2.461612462997436523e+00 -2.741713285446166992e+00 -2.461612462997436523e+00 -2.543628120422363281e+01
9.971517562866210938e+00 1.475628185272216797e+01 -3.189055681228637695e+00 1.475628185272216797e+01 -2.453956031799316406e+01 -4.261965274810791016e+00 -3.189055681228637695e+00 -4.261965274810791016e+00 -9.335359573364257812e+00
-1.488543868064880371e+00 -1.838981056213378906e+01 -1.028866767883300781e+01 -1.838981056213378906e+01 -7.532891750335693359e+00 -6.506572723388671875e+00 -1.028866767883300781e+01 -6.506572723388671875e+00 6.486539363861083984e+00
-3.020001411437988281e+01 -1.974016571044921875e+01 -1.101561903953552246e+00 -1.974016571044921875e+01 -2.899981117248535156e+01 1.634781837463378906e+01 -1.101561903953552246e+00 1.634781837463378906e+01 -2.976278495788574219e+01
-4.905664026737213135e-01 2.184727287292480469e+01 7.247678041458129883e-01 2.184727287292480469e+01 -2.202039909362792969e+01 -3.275160551071166992e+00 7.247678041458129883e-01 -3.275160551071166992e+00 5.362497329711914062e+00
-1.910945320129394531e+01 -6.532369136810302734e+00 1.742448210716247559e+00 -6.532369136810302734e+00 -9.176261901855468750e+00 -9.296915054321289062e+00 1.742448210716247559e+00 -9.296915054321289062e+00 1.837242507934570312e+01
-1.478121280670166016e+00 8.763905525207519531e+00 -2.524827480316162109e+00 8.763905525207519531e+00 -1.547994613647460938e+01 -9.716846466064453125e+00 -2.524827480316162109e+00 -9.716846466064453125e+00 -3.334377527236938477e+00
-2.165543556213378906e+00 1.143596768379211426e+00 9.277390480041503906e+00 1.143596768379211426e+00 -2.965052986145019531e+01 7.936115860939025879e-01 9.277390480041503906e+00 7.936115860939025879e-01 -1.088849544525146484e+01
1.230575323104858398e+00 1.470535278320312500e+01 -8.969227790832519531e+00 1.470535278320312500e+01 -7.591724395751953125e+01 -9.322283744812011719e+00 -8.969227790832519531e+00 -9.322283744812011719e+00 -6.067136764526367188e+01
-5.463907718658447266e+00 3.454524993896484375e+00 -4.860004901885986328e+00 3.454524993896484375e+00 -1.381890010833740234e+01 -4.565481185913085938e+00 -4.860004901885986328e+00 -4.565481185913085938e+00 7.519134283065795898e-01
7.258727073669433594e+00 1.519745540618896484e+01 1.431256651878356934e+00 1.519745540618896484e+01 -7.142789840698242188e+00 -1.398601627349853516e+01 1.431256651878356934e+00 -1.398601627349853516e+01 -8.825259208679199219e+00
-1.000362157821655273e+00 1.227170944213867188e+01 4.609268665313720703e+00 1.227170944213867188e+01 1.753609085083007812e+01 1.454939961433410645e+00 4.609268665313720703e+00 1.454939961433410645e+00 -3.323106384277343750e+01
-1.043344616889953613e+00 2.662977695465087891e+00 1.342443943023681641e+00 2.662977695465087891e+00 -3.686339187622070312e+01 9.287662506103515625e+00 1.342443943023681641e+00 9.287662506103515625e+00 -3.628312826156616211e+00
-9.646501541137695312e+00 -7.280656814575195312e+00 -2.361384201049804688e+01 -7.280656814575195312e+00 -4.958079147338867188e+01 -1.867070388793945312e+01 -2.361384201049804688e+01 -1.867070388793945312e+01 -3.221791458129882812e+01
-4.332452774047851562e+00 -5.965378284454345703e+00 6.636470317840576172e+00 -5.965378284454345703e+00 -9.208466529846191406e+00 1.746751594543457031e+01 6.636470317840576172e+00 1.746751594543457031e+01 -4.372278976440429688e+01
-2.067826271057128906e+01 1.041958999633789062e+01 -1.807691335678100586e+00 1.041958999633789062e+01 9.498786926269531250e+00 -1.206418037414550781e+01 -1.807691335678100586e+00 -1.206418037414550781e+01 -1.233311843872070312e+01
-2.844931221008300781e+01 -5.161177158355712891e+00 -2.319815158843994141e+00 -5.161177158355712891e+00 -1.757151603698730469e+01 1.699840354919433594e+01 -2.319815158843994141e+00 1.699840354919433594e+01 -2.283818721771240234e+00
-1.856418991088867188e+01 5.627876281738281250e+00 -1.975632095336914062e+01 5.627876281738281250e+00 -2.025618553161621094e+01 1.699416279792785645e+00 -1.975632095336914062e+01 1.699416279792785645e+00 -3.258872222900390625e+01
-3.369416809082031250e+01 -4.987660884857177734e+00 -1.157953453063964844e+01 -4.987660884857177734e+00 -1.221145629882812500e+01 1.604758644104003906e+01 -1.157953453063964844e+01 1.604758644104003906e+01 4.243749618530273438e+00
-7.284074306488037109e+00 7.361065864562988281e+00 1.061211776733398438e+01 7.361065864562988281e+00 -3.837564468383789062e+01 1.016591548919677734e+00 1.061211776733398438e+01 1.016591548919677734e+00 -4.357741928100585938e+01
-7.986271381378173828e+00 -2.391068220138549805e+00 -2.714755630493164062e+01 -2.391068220138549805e+00 -1.771740150451660156e+01 1.111184597015380859e+00 -2.714755630493164062e+01 1.111184597015380859e+00 -4.983871841430664062e+01
-3.139821815490722656e+01 1.595959544181823730e+00 1.168980979919433594e+01 1.595959544181823730e+00 -5.356566619873046875e+01 4.543522834777832031e+00 1.168980979919433594e+01 4.543522834777832031e+00 -2.459324645996093750e+01
-3.380489730834960938e+01 -1.429807543754577637e+00 -6.098690986633300781e+00 -1.429807543754577637e+00 -2.002775192260742188e+01 -7.367652654647827148e-01 -6.098690986633300781e+00 -7.367652654647827148e-01 -2.807425498962402344e+01
-3.521457672119140625e+01 3.863979816436767578e+00 3.976394653320312500e+00 3.863979816436767578e+00 -2.082978630065917969e+01 -2.911345720291137695e+00 3.976394653320312500e+00 -2.911345720291137695e+00 -1.345683956146240234e+01
-1.418319511413574219e+01 8.642161369323730469e+00 -1.859026998281478882e-01 8.642161369323730469e+00 7.160871982574462891e+00 1.181452846527099609e+01 -1.859026998281478882e-01 1.181452846527099609e+01 2.030890464782714844e+01
1.921588897705078125e+01 2.146735191345214844e+01 -1.547692656517028809e+00 2.146735191345214844e+01 5.321263790130615234e+00 -1.309102439880371094e+01 -1.547692656517028809e+00 -1.309102439880371094e+01 -2.487958335876464844e+01
-3.350766754150390625e+01 4.795031070709228516e+00 2.078359794616699219e+01 4.795031070709228516e+00 -3.874385452270507812e+01 8.168381690979003906e+00 2.078359794616699219e+01 8.168381690979003906e+00 -3.578031158447265625e+01
-3.714418411254882812e+01 -5.716275215148925781e+00 -7.214283943176269531e+00 -5.716275215148925781e+00 -2.193106174468994141e+00 -1.785337829589843750e+01 -7.214283943176269531e+00 -1.785337829589843750e+01 -1.228205108642578125e+01
-4.088988113403320312e+01 1.075993156433105469e+01 -3.848783493041992188e+00 1.075993156433105469e+01 -7.566922187805175781e+00 1.361063385009765625e+01 -3.848783493041992188e+00 1.361063385009765625e+01 -4.503463745117187500e+01
-1.606825828552246094e+01 -8.569024085998535156e+00 -1.662039947509765625e+01 -8.569024085998535156e+00 2.262146234512329102e+00 -1.564450359344482422e+01 -1.662039947509765625e+01 -1.564450359344482422e+01 -1.513067340850830078e+01
-1.701127624511718750e+01 8.166196823120117188e+00 9.605388641357421875e+00 8.166196823120117188e+00 5.625084877014160156e+00 -2.967232465744018555e+00 9.605388641357421875e+00 -2.967232465744018555e+00 -7.988166809082031250e+00
-1.645630645751953125e+01 -1.981010818481445312e+01 -3.775146007537841797e+00 -1.981010818481445312e+01 -1.962809944152832031e+01 -9.925896644592285156e+00 -3.775146007537841797e+00 -9.925896644592285156e+00 -4.559730148315429688e+01
-2.380229759216308594e+01 -5.027419090270996094e+00 1.024228382110595703e+01 -5.027419090270996094e+00 -5.457997894287109375e+01 1.816271591186523438e+01 1.024228382110595703e+01 1.816271591186523438e+01 -3.567750930786132812e+01
-1.287058925628662109e+01 -7.538988590240478516e+00 -8.125164031982421875e+00 -7.538988590240478516e+00 1.120985865592956543e+00 -7.249398231506347656e+00 -8.125164031982421875e+00 -7.249398231506347656e+00 4.215190887451171875e+00
-2.531160354614257812e+01 -8.455597877502441406e+00 -1.920420169830322266e+00 -8.455597877502441406e+00 -2.893812179565429688e+01 9.251030921936035156e+00 -1.920420169830322266e+00 9.251030921936035156e+00 -4.019486427307128906e+00
-5.493242263793945312e+00 -1.121763134002685547e+01 -4.922579765319824219e+00 -1.121763134002685547e+01 -3.250007629394531250e+01 -1.323697566986083984e+01 -4.922579765319824219e+00 -1.323697566986083984e+01 -1.807766532897949219e+01
-2.869207000732421875e+01 1.448431587219238281e+01 -2.481572151184082031e+01 1.448431587219238281e+01 -2.346760749816894531e+01 -8.070202916860580444e-02 -2.481572151184082031e+01 -8.070202916860580444e-02 -4.078673934936523438e+01
-4.197495269775390625e+01 7.964826107025146484e+00 2.251707839965820312e+01 7.964826107025146484e+00 -2.569108390808105469e+01 -1.383543872833251953e+01 2.251707839965820312e+01 -1.383543872833251953e+01 5.304925441741943359e+00
-4.238702011108398438e+01 -5.399695396423339844e+00 6.713356971740722656e+00 -5.399695396423339844e+00 -5.673290252685546875e+00 -1.814118862152099609e+00 6.713356971740722656e+00 -1.814118862152099609e+00 -3.610418701171875000e+01
1.113334465026855469e+01 1.278017520904541016e+01 -2.361291694641113281e+01 1.278017520904541016e+01 -6.760356426239013672e+00 -1.370449352264404297e+01 -2.361291694641113281e+01 -1.370449352264404297e+01 1.368121528625488281e+01
-1.669637489318847656e+01 3.962736368179321289e+00 1.103270244598388672e+01 3.962736368179321289e+00 -1.653177976608276367e+00 1.438388824462890625e+00 1.103270244598388672e+01 1.438388824462890625e+00 -2.080899047851562500e+01
-3.502155685424804688e+01 8.210739135742187500e+00 -2.426043319702148438e+01 8.210739135742187500e+00 -1.166232013702392578e+01 -1.270043563842773438e+01 -2.426043319702148438e+01 -1.270043563842773438e+01 -4.830939483642578125e+01
4.506886959075927734e+00 1.072140407562255859e+01 -5.552370071411132812e+00 1.072140407562255859e+01 1.195652580261230469e+01 4.062118530273437500e+00 -5.552370071411132812e+00 4.062118530273437500e+00 -1.279332160949707031e+01
-6.804235076904296875e+01 -1.230190023779869080e-01 8.271654129028320312e+00 -1.230190023779869080e-01 -5.400629425048828125e+01 1.106815910339355469e+01 8.271654129028320312e+00 1.106815910339355469e+01 -3.634432983398437500e+01
-1.047869586944580078e+01 -1.286617469787597656e+01 -7.732852458953857422e+00 -1.286617469787597656e+01 -2.802219390869140625e+01 -1.346824359893798828e+01 -7.732852458953857422e+00 -1.346824359893798828e+01 -4.084742736816406250e+01
-6.632103919982910156e-01 -1.825895309448242188e+01 3.027457714080810547e+00 -1.825895309448242188e+01 1.403486824035644531e+01 -5.550360679626464844e+00 3.027457714080810547e+00 -5.550360679626464844e+00 5.124252796173095703e+00
-2.103834724426269531e+01 -8.044562935829162598e-01 -1.799373388290405273e+00 -8.044562935829162598e-01 1.987464141845703125e+01 8.249673843383789062e+00 -1.799373388290405273e+00 8.249673843383789062e+00 -1.782608604431152344e+01