1.970599937438964844e+01 0.000000000000000000e+00 0.000000000000000000e+00 -4.029999971389770508e-01 2.032500076293945312e+01 0.000000000000000000e+00 -4.860000014305114746e-01 -6.100000068545341492e-02 2.007299995422363281e+01
1.967700004577636719e+01 0.000000000000000000e+00 0.000000000000000000e+00 -4.020000100135803223e-01 2.029599952697753906e+01 0.000000000000000000e+00 -4.860000014305114746e-01 -6.100000068545341492e-02 2.004400062561035156e+01
1.990999984741210938e+01 0.000000000000000000e+00 0.000000000000000000e+00 -4.070000052452087402e-01 2.053599929809570312e+01 0.000000000000000000e+00 -4.909999966621398926e-01 -6.199999898672103882e-02 2.028100013732910156e+01
1.992900085449218750e+01 0.000000000000000000e+00 0.000000000000000000e+00 -4.070000052452087402e-01 2.055599975585937500e+01 0.000000000000000000e+00 -4.920000135898590088e-01 -6.199999898672103882e-02 2.029999923706054688e+01
1.986000061035156250e+01 0.000000000000000000e+00 0.000000000000000000e+00 -4.059999883174896240e-01 2.048399925231933594e+01 0.000000000000000000e+00 -4.900000095367431641e-01 -6.199999898672103882e-02 2.022900009155273438e+01
1.980200004577636719e+01 0.000000000000000000e+00 0.000000000000000000e+00 -4.050000011920928955e-01 2.042499923706054688e+01 0.000000000000000000e+00 -4.889999926090240479e-01 -6.100000068545341492e-02 2.017099952697753906e+01
1.967900085449218750e+01 0.000000000000000000e+00 0.000000000000000000e+00 -4.020000100135803223e-01 2.029800033569335938e+01 0.000000000000000000e+00 -4.860000014305114746e-01 -6.100000068545341492e-02 2.004599952697753906e+01
1.965200042724609375e+01 0.000000000000000000e+00 0.000000000000000000e+00 -4.020000100135803223e-01 2.027000045776367188e+01 0.000000000000000000e+00 -4.850000143051147461e-01 -6.100000068545341492e-02 2.001799964904785156e+01
1.968499946594238281e+01 0.000000000000000000e+00 0.000000000000000000e+00 -4.020000100135803223e-01 2.030400085449218750e+01 0.000000000000000000e+00 -4.860000014305114746e-01 -6.100000068545341492e-02 2.005200004577636719e+01
2.009199905395507812e+01 0.000000000000000000e+00 0.000000000000000000e+00 -4.110000133514404297e-01 2.072400093078613281e+01 0.000000000000000000e+00 -4.959999918937683105e-01 -6.199999898672103882e-02 2.046599960327148438e+01
2.003800010681152344e+01 0.000000000000000000e+00 0.000000000000000000e+00 -4.099999964237213135e-01 2.066799926757812500e+01 0.000000000000000000e+00 -4.950000047683715820e-01 -6.199999898672103882e-02 2.041099929809570312e+01
2.009600067138671875e+01 0.000000000000000000e+00 0.000000000000000000e+00 -4.110000133514404297e-01 2.072800064086914062e+01 0.000000000000000000e+00 -4.959999918937683105e-01 -6.199999898672103882e-02 2.046999931335449219e+01
2.011100006103515625e+01 0.000000000000000000e+00 0.000000000000000000e+00 -4.110000133514404297e-01 2.074300003051757812e+01 0.000000000000000000e+00 -4.959999918937683105e-01 -6.199999898672103882e-02 2.048600006103515625e+01
2.011199951171875000e+01 0.000000000000000000e+00 0.000000000000000000e+00 -4.110000133514404297e-01 2.074399948120117188e+01 0.000000000000000000e+00 -4.959999918937683105e-01 -6.199999898672103882e-02 2.048600006103515625e+01
2.003599929809570312e+01 0.000000000000000000e+00 0.000000000000000000e+00 -4.099999964237213135e-01 2.066600036621093750e+01 0.000000000000000000e+00 -4.950000047683715820e-01 -6.199999898672103882e-02 2.040900039672851562e+01
2.005900001525878906e+01 0.000000000000000000e+00 0.000000000000000000e+00 -4.099999964237213135e-01 2.069000053405761719e+01 0.000000000000000000e+00 -4.950000047683715820e-01 -6.199999898672103882e-02 2.043300056457519531e+01
2.014900016784667969e+01 0.000000000000000000e+00 0.000000000000000000e+00 -4.120000004768371582e-01 2.078199958801269531e+01 0.000000000000000000e+00 -4.970000088214874268e-01 -6.199999898672103882e-02 2.052400016784667969e+01
2.004999923706054688e+01 0.000000000000000000e+00 0.000000000000000000e+00 -4.099999964237213135e-01 2.068000030517578125e+01 0.000000000000000000e+00 -4.950000047683715820e-01 -6.199999898672103882e-02 2.042300033569335938e+01
2.009399986267089844e+01 0.000000000000000000e+00 0.000000000000000000e+00 -4.110000133514404297e-01 2.072500038146972656e+01 0.000000000000000000e+00 -4.959999918937683105e-01 -6.199999898672103882e-02 2.046800041198730469e+01
1.990999984741210938e+01 0.000000000000000000e+00 0.000000000000000000e+00 -4.070000052452087402e-01 2.053499984741210938e+01 0.000000000000000000e+00 -4.909999966621398926e-01 -6.199999898672103882e-02 2.028000068664550781e+01
1.956200027465820312e+01 0.000000000000000000e+00 0.000000000000000000e+00 -4.000000059604644775e-01 2.017700004577636719e+01 0.000000000000000000e+00 -4.830000102519989014e-01 -6.100000068545341492e-02 1.992600059509277344e+01
1.976300048828125000e+01 0.000000000000000000e+00 0.000000000000000000e+00 -4.040000140666961670e-01 2.038400077819824219e+01 0.000000000000000000e+00 -4.880000054836273193e-01 -6.100000068545341492e-02 2.013100051879882812e+01
1.971699905395507812e+01 0.000000000000000000e+00 0.000000000000000000e+00 -4.029999971389770508e-01 2.033600044250488281e+01 0.000000000000000000e+00 -4.869999885559082031e-01 -6.100000068545341492e-02 2.008399963378906250e+01
1.971800041198730469e+01 0.000000000000000000e+00 0.000000000000000000e+00 -4.029999971389770508e-01 2.033799934387207031e+01 0.000000000000000000e+00 -4.869999885559082031e-01 -6.100000068545341492e-02 2.008600044250488281e+01
1.986899948120117188e+01 0.000000000000000000e+00 0.000000000000000000e+00 -4.059999883174896240e-01 2.049399948120117188e+01 0.000000000000000000e+00 -4.900000095367431641e-01 -6.199999898672103882e-02 2.023900032043457031e+01
1.986300086975097656e+01 0.000000000000000000e+00 0.000000000000000000e+00 -4.059999883174896240e-01 2.048699951171875000e+01 0.000000000000000000e+00 -4.900000095367431641e-01 -6.199999898672103882e-02 2.023299980163574219e+01
1.971299934387207031e+01 0.000000000000000000e+00 0.000000000000000000e+00 -4.029999971389770508e-01 2.033200073242187500e+01 0.000000000000000000e+00 -4.869999885559082031e-01 -6.100000068545341492e-02 2.007999992370605469e+01
1.971100044250488281e+01 0.000000000000000000e+00 0.000000000000000000e+00 -4.029999971389770508e-01 2.033099937438964844e+01 0.000000000000000000e+00 -4.869999885559082031e-01 -6.100000068545341492e-02 2.007799911499023438e+01
1.980200004577636719e+01 0.000000000000000000e+00 0.000000000000000000e+00 -4.050000011920928955e-01 2.042499923706054688e+01 0.000000000000000000e+00 -4.889999926090240479e-01 -6.100000068545341492e-02 2.017099952697753906e+01
2.009199905395507812e+01 0.000000000000000000e+00 0.000000000000000000e+00 -4.110000133514404297e-01 2.072400093078613281e+01 0.000000000000000000e+00 -4.959999918937683105e-01 -6.199999898672103882e-02 2.046599960327148438e+01
2.029599952697753906e+01 0.000000000000000000e+00 0.000000000000000000e+00 -4.149999916553497314e-01 2.093400001525878906e+01 0.000000000000000000e+00 -5.009999871253967285e-01 -6.300000101327896118e-02 2.067399978637695312e+01
2.057999992370605469e+01 0.000000000000000000e+00 0.000000000000000000e+00 -4.210000038146972656e-01 2.122699928283691406e+01 0.000000000000000000e+00 -5.080000162124633789e-01 -6.400000303983688354e-02 2.096299934387207031e+01
2.060300064086914062e+01 0.000000000000000000e+00 0.000000000000000000e+00 -4.210000038146972656e-01 2.125099945068359375e+01 0.000000000000000000e+00 -5.090000033378601074e-01 -6.400000303983688354e-02 2.098699951171875000e+01
2.059600067138671875e+01 0.000000000000000000e+00 0.000000000000000000e+00 -4.210000038146972656e-01 2.124300003051757812e+01 0.000000000000000000e+00 -5.080000162124633789e-01 -6.400000303983688354e-02 2.097900009155273438e+01
2.066200065612792969e+01 0.000000000000000000e+00 0.000000000000000000e+00 -4.219999909400939941e-01 2.131100082397460938e+01 0.000000000000000000e+00 -5.099999904632568359e-01 -6.400000303983688354e-02 2.104599952697753906e+01
2.056800079345703125e+01 0.000000000000000000e+00 0.000000000000000000e+00 -4.210000038146972656e-01 2.121500015258789062e+01 0.000000000000000000e+00 -5.080000162124633789e-01 -6.400000303983688354e-02 2.095100021362304688e+01
2.034300041198730469e+01 0.000000000000000000e+00 0.000000000000000000e+00 -4.160000085830688477e-01 2.098299980163574219e+01 0.000000000000000000e+00 -5.019999742507934570e-01 -6.300000101327896118e-02 2.072200012207031250e+01
2.049799919128417969e+01 0.000000000000000000e+00 0.000000000000000000e+00 -4.189999997615814209e-01 2.114200019836425781e+01 0.000000000000000000e+00 -5.059999823570251465e-01 -6.400000303983688354e-02 2.087899971008300781e+01
2.060199928283691406e+01 0.000000000000000000e+00 0.000000000000000000e+00 -4.210000038146972656e-01 2.125000000000000000e+01 0.000000000000000000e+00 -5.090000033378601074e-01 -6.400000303983688354e-02 2.098600006103515625e+01
2.048699951171875000e+01 0.000000000000000000e+00 0.000000000000000000e+00 -4.189999997615814209e-01 2.113100051879882812e+01 0.000000000000000000e+00 -5.059999823570251465e-01 -6.300000101327896118e-02 2.086899948120117188e+01
2.046899986267089844e+01 0.000000000000000000e+00 0.000000000000000000e+00 -4.180000126361846924e-01 2.111300086975097656e+01 0.000000000000000000e+00 -5.049999952316284180e-01 -6.300000101327896118e-02 2.085099983215332031e+01
2.023399925231933594e+01 0.000000000000000000e+00 0.000000000000000000e+00 -4.140000045299530029e-01 2.087000083923339844e+01 0.000000000000000000e+00 -4.990000128746032715e-01 -6.300000101327896118e-02 2.061100006103515625e+01
2.027300071716308594e+01 0.000000000000000000e+00 0.000000000000000000e+00 -4.140000045299530029e-01 2.090999984741210938e+01 0.000000000000000000e+00 -5.000000000000000000e-01 -6.300000101327896118e-02 2.064999961853027344e+01
2.048800086975097656e+01 0.000000000000000000e+00 0.000000000000000000e+00 -4.189999997615814209e-01 2.113199996948242188e+01 0.000000000000000000e+00 -5.059999823570251465e-01 -6.300000101327896118e-02 2.087000083923339844e+01
2.054400062561035156e+01 0.000000000000000000e+00 0.000000000000000000e+00 -4.199999868869781494e-01 2.119000053405761719e+01 0.000000000000000000e+00 -5.070000290870666504e-01 -6.400000303983688354e-02 2.092700004577636719e+01
2.062400054931640625e+01 0.000000000000000000e+00 0.000000000000000000e+00 -4.219999909400939941e-01 2.127199935913085938e+01 0.000000000000000000e+00 -5.090000033378601074e-01 -6.400000303983688354e-02 2.100799942016601562e+01
2.052599906921386719e+01 0.000000000000000000e+00 0.000000000000000000e+00 -4.199999868869781494e-01 2.117099952697753906e+01 0.000000000000000000e+00 -5.070000290870666504e-01 -6.400000303983688354e-02 2.090900039672851562e+01
2.050099945068359375e+01 0.000000000000000000e+00 0.000000000000000000e+00 -4.189999997615814209e-01 2.114500045776367188e+01 0.000000000000000000e+00 -5.059999823570251465e-01 -6.400000303983688354e-02 2.088299942016601562e+01
2.031900024414062500e+01 0.000000000000000000e+00 0.000000000000000000e+00 -4.149999916553497314e-01 2.095800018310546875e+01 0.000000000000000000e+00 -5.019999742507934570e-01 -6.300000101327896118e-02 2.069799995422363281e+01
2.015699958801269531e+01 0.000000000000000000e+00 0.000000000000000000e+00 -4.120000004768371582e-01 2.079100036621093750e+01 0.000000000000000000e+00 -4.979999959468841553e-01 -6.199999898672103882e-02 2.053300094604492188e+01
2.035899925231933594e+01 0.000000000000000000e+00 0.000000000000000000e+00 -4.160000085830688477e-01 2.099900054931640625e+01 0.000000000000000000e+00 -5.030000209808349609e-01 -6.300000101327896118e-02 2.073800086975097656e+01
2.058699989318847656e+01 0.000000000000000000e+00 0.000000000000000000e+00 -4.210000038146972656e-01 2.123399925231933594e+01 0.000000000000000000e+00 -5.080000162124633789e-01 -6.400000303983688354e-02 2.096999931335449219e+01
2.050200080871582031e+01 0.000000000000000000e+00 0.000000000000000000e+00 -4.189999997615814209e-01 2.114599990844726562e+01 0.000000000000000000e+00 -5.059999823570251465e-01 -6.400000303983688354e-02 2.088400077819824219e+01
2.045899963378906250e+01 0.000000000000000000e+00 0.000000000000000000e+00 -4.180000126361846924e-01 2.110199928283691406e+01 0.000000000000000000e+00 -5.049999952316284180e-01 -6.300000101327896118e-02 2.084000015258789062e+01
2.024300003051757812e+01 0.000000000000000000e+00 0.000000000000000000e+00 -4.140000045299530029e-01 2.087899971008300781e+01 0.000000000000000000e+00 -5.000000000000000000e-01 -6.300000101327896118e-02 2.062000083923339844e+01
2.043300056457519531e+01 0.000000000000000000e+00 0.000000000000000000e+00 -4.180000126361846924e-01 2.107500076293945312e+01 0.000000000000000000e+00 -5.040000081062316895e-01 -6.300000101327896118e-02 2.081299972534179688e+01
2.052300071716308594e+01 0.000000000000000000e+00 0.000000000000000000e+00 -4.199999868869781494e-01 2.116799926757812500e+01 0.000000000000000000e+00 -5.070000290870666504e-01 -6.400000303983688354e-02 2.090500068664550781e+01
2.052199935913085938e+01 0.000000000000000000e+00 0.000000000000000000e+00 -4.199999868869781494e-01 2.116699981689453125e+01 0.000000000000000000e+00 -5.070000290870666504e-01 -6.400000303983688354e-02 2.090399932861328125e+01
2.038299942016601562e+01 0.000000000000000000e+00 0.000000000000000000e+00 -4.169999957084655762e-01 2.102300071716308594e+01 0.000000000000000000e+00 -5.030000209808349609e-01 -6.300000101327896118e-02 2.076199913024902344e+01
2.043799972534179688e+01 0.000000000000000000e+00 0.000000000000000000e+00 -4.180000126361846924e-01 2.107999992370605469e+01 0.000000000000000000e+00 -5.040000081062316895e-01 -6.300000101327896118e-02 2.081900024414062500e+01
2.059000015258789062e+01 0.000000000000000000e+00 0.000000000000000000e+00 -4.210000038146972656e-01 2.123699951171875000e+01 0.000000000000000000e+00 -5.080000162124633789e-01 -6.400000303983688354e-02 2.097299957275390625e+01
2.068099975585937500e+01 0.000000000000000000e+00 0.000000000000000000e+00 -4.230000078678131104e-01 2.133099937438964844e+01 0.000000000000000000e+00 -5.099999904632568359e-01 -6.400000303983688354e-02 2.106599998474121094e+01
2.061599922180175781e+01 0.000000000000000000e+00 0.000000000000000000e+00 -4.210000038146972656e-01 2.126399993896484375e+01 0.000000000000000000e+00 -5.090000033378601074e-01 -6.400000303983688354e-02 2.099900054931640625e+01
2.064100074768066406e+01 0.000000000000000000e+00 0.000000000000000000e+00 -4.219999909400939941e-01 2.128899955749511719e+01 0.000000000000000000e+00 -5.090000033378601074e-01 -6.400000303983688354e-02 2.102499961853027344e+01
2.054999923706054688e+01 0.000000000000000000e+00 0.000000000000000000e+00 -4.199999868869781494e-01 2.119599914550781250e+01 0.000000000000000000e+00 -5.070000290870666504e-01 -6.400000303983688354e-02 2.093300056457519531e+01
2.064299964904785156e+01 0.000000000000000000e+00 0.000000000000000000e+00 -4.219999909400939941e-01 2.129199981689453125e+01 0.000000000000000000e+00 -5.099999904632568359e-01 -6.400000303983688354e-02 2.102700042724609375e+01
2.030500030517578125e+01 0.000000000000000000e+00 0.000000000000000000e+00 -4.149999916553497314e-01 2.094400024414062500e+01 0.000000000000000000e+00 -5.009999871253967285e-01 -6.300000101327896118e-02 2.068300056457519531e+01
2.043300056457519531e+01 0.000000000000000000e+00 0.000000000000000000e+00 -4.180000126361846924e-01 2.107500076293945312e+01 0.000000000000000000e+00 -5.040000081062316895e-01 -6.300000101327896118e-02 2.081299972534179688e+01
1.957399940490722656e+01 0.000000000000000000e+00 0.000000000000000000e+00 -5.230000019073486328e-01 2.010199928283691406e+01 0.000000000000000000e+00 2.000000094994902611e-03 -3.089999854564666748e-01 2.042700004577636719e+01
1.953400039672851562e+01 0.000000000000000000e+00 0.000000000000000000e+00 -5.220000147819519043e-01 2.006100082397460938e+01 0.000000000000000000e+00 2.000000094994902611e-03 -3.079999983310699463e-01 2.038500022888183594e+01
1.958799934387207031e+01 0.000000000000000000e+00 0.000000000000000000e+00 -5.239999890327453613e-01 2.011700057983398438e+01 0.000000000000000000e+00 2.000000094994902611e-03 -3.089999854564666748e-01 2.044199943542480469e+01
1.944700050354003906e+01 0.000000000000000000e+00 0.000000000000000000e+00 -5.199999809265136719e-01 1.997200012207031250e+01 0.000000000000000000e+00 2.000000094994902611e-03 -3.070000112056732178e-01 2.029400062561035156e+01
1.957799911499023438e+01 0.000000000000000000e+00 0.000000000000000000e+00 -5.230000019073486328e-01 2.010600090026855469e+01 0.000000000000000000e+00 2.000000094994902611e-03 -3.089999854564666748e-01 2.043099975585937500e+01
1.942799949645996094e+01 0.000000000000000000e+00 0.000000000000000000e+00 -5.189999938011169434e-01 1.995199966430664062e+01 0.000000000000000000e+00 2.000000094994902611e-03 -3.070000112056732178e-01 2.027499961853027344e+01
1.958499908447265625e+01 0.000000000000000000e+00 0.000000000000000000e+00 -5.239999890327453613e-01 2.011300086975097656e+01 0.000000000000000000e+00 2.000000094994902611e-03 -3.089999854564666748e-01 2.043799972534179688e+01
1.941799926757812500e+01 0.000000000000000000e+00 0.000000000000000000e+00 -5.189999938011169434e-01 1.994199943542480469e+01 0.000000000000000000e+00 2.000000094994902611e-03 -3.059999942779541016e-01 2.026399993896484375e+01
1.948299980163574219e+01 0.000000000000000000e+00 0.000000000000000000e+00 -5.210000276565551758e-01 2.000900077819824219e+01 0.000000000000000000e+00 2.000000094994902611e-03 -3.070000112056732178e-01 2.033200073242187500e+01
1.963400077819824219e+01 0.000000000000000000e+00 0.000000000000000000e+00 -5.249999761581420898e-01 2.016399955749511719e+01 0.000000000000000000e+00 2.000000094994902611e-03 -3.100000023841857910e-01 2.048999977111816406e+01
1.966799926757812500e+01 0.000000000000000000e+00 0.000000000000000000e+00 -5.260000228881835938e-01 2.019799995422363281e+01 0.000000000000000000e+00 2.000000094994902611e-03 -3.100000023841857910e-01 2.052499961853027344e+01
1.951700019836425781e+01 0.000000000000000000e+00 0.000000000000000000e+00 -5.220000147819519043e-01 2.004299926757812500e+01 0.000000000000000000e+00 2.000000094994902611e-03 -3.079999983310699463e-01 2.036700057983398438e+01
1.962100028991699219e+01 0.000000000000000000e+00 0.000000000000000000e+00 -5.249999761581420898e-01 2.014999961853027344e+01 0.000000000000000000e+00 2.000000094994902611e-03 -3.100000023841857910e-01 2.047599983215332031e+01
1.985799980163574219e+01 0.000000000000000000e+00 0.000000000000000000e+00 -5.310000181198120117e-01 2.039299964904785156e+01 0.000000000000000000e+00 2.000000094994902611e-03 -3.129999935626983643e-01 2.072299957275390625e+01
1.979800033569335938e+01 0.000000000000000000e+00 0.000000000000000000e+00 -5.289999842643737793e-01 2.033200073242187500e+01 0.000000000000000000e+00 2.000000094994902611e-03 -3.120000064373016357e-01 2.066099929809570312e+01
2.013299942016601562e+01 0.000000000000000000e+00 0.000000000000000000e+00 -5.379999876022338867e-01 2.067600059509277344e+01 0.000000000000000000e+00 2.000000094994902611e-03 -3.179999887943267822e-01 2.101000022888183594e+01
2.012800025939941406e+01 0.000000000000000000e+00 0.000000000000000000e+00 -5.379999876022338867e-01 2.067200088500976562e+01 0.000000000000000000e+00 2.000000094994902611e-03 -3.179999887943267822e-01 2.100499916076660156e+01
2.005500030517578125e+01 0.000000000000000000e+00 0.000000000000000000e+00 -5.360000133514404297e-01 2.059600067138671875e+01 0.000000000000000000e+00 2.000000094994902611e-03 -3.160000145435333252e-01 2.092900085449218750e+01
2.014200019836425781e+01 0.000000000000000000e+00 0.000000000000000000e+00 -5.389999747276306152e-01 2.068499946594238281e+01 0.000000000000000000e+00 2.000000094994902611e-03 -3.179999887943267822e-01 2.101899909973144531e+01
2.042799949645996094e+01 0.000000000000000000e+00 0.000000000000000000e+00 -5.460000038146972656e-01 2.097900009155273438e+01 0.000000000000000000e+00 2.000000094994902611e-03 -3.219999969005584717e-01 2.131800079345703125e+01
2.040699958801269531e+01 0.000000000000000000e+00 0.000000000000000000e+00 -5.460000038146972656e-01 2.095800018310546875e+01 0.000000000000000000e+00 2.000000094994902611e-03 -3.219999969005584717e-01 2.129599952697753906e+01
2.036000061035156250e+01 0.000000000000000000e+00 0.000000000000000000e+00 -5.440000295639038086e-01 2.090999984741210938e+01 0.000000000000000000e+00 2.000000094994902611e-03 -3.210000097751617432e-01 2.124699974060058594e+01
2.040399932861328125e+01 0.000000000000000000e+00 0.000000000000000000e+00 -5.460000038146972656e-01 2.095400047302246094e+01 0.000000000000000000e+00 2.000000094994902611e-03 -3.219999969005584717e-01 2.129199981689453125e+01
2.039399909973144531e+01 0.000000000000000000e+00 0.000000000000000000e+00 -5.450000166893005371e-01 2.094400024414062500e+01 0.000000000000000000e+00 2.000000094994902611e-03 -3.219999969005584717e-01 2.128199958801269531e+01
2.035400009155273438e+01 0.000000000000000000e+00 0.000000000000000000e+00 -5.440000295639038086e-01 2.090299987792968750e+01 0.000000000000000000e+00 2.000000094994902611e-03 -3.210000097751617432e-01 2.124099922180175781e+01
2.029899978637695312e+01 0.000000000000000000e+00 0.000000000000000000e+00 -5.429999828338623047e-01 2.084700012207031250e+01 0.000000000000000000e+00 2.000000094994902611e-03 -3.199999928474426270e-01 2.118400001525878906e+01
2.045400047302246094e+01 0.000000000000000000e+00 0.000000000000000000e+00 -5.469999909400939941e-01 2.100600051879882812e+01 0.000000000000000000e+00 2.000000094994902611e-03 -3.230000138282775879e-01 2.134499931335449219e+01
2.042799949645996094e+01 0.000000000000000000e+00 0.000000000000000000e+00 -5.460000038146972656e-01 2.097900009155273438e+01 0.000000000000000000e+00 2.000000094994902611e-03 -3.219999969005584717e-01 2.131800079345703125e+01
2.047500038146972656e+01 0.000000000000000000e+00 0.000000000000000000e+00 -5.469999909400939941e-01 2.102799987792968750e+01 0.000000000000000000e+00 2.000000094994902611e-03 -3.230000138282775879e-01 2.136700057983398438e+01
2.041799926757812500e+01 0.000000000000000000e+00 0.000000000000000000e+00 -5.460000038146972656e-01 2.096899986267089844e+01 0.000000000000000000e+00 2.000000094994902611e-03 -3.219999969005584717e-01 2.130699920654296875e+01
2.054299926757812500e+01 0.000000000000000000e+00 0.000000000000000000e+00 -5.490000247955322266e-01 2.109700012207031250e+01 0.000000000000000000e+00 2.000000094994902611e-03 -3.240000009536743164e-01 2.143799972534179688e+01
2.049099922180175781e+01 0.000000000000000000e+00 0.000000000000000000e+00 -5.479999780654907227e-01 2.104400062561035156e+01 0.000000000000000000e+00 2.000000094994902611e-03 -3.230000138282775879e-01 2.138400077819824219e+01
2.034499931335449219e+01 0.000000000000000000e+00 0.000000000000000000e+00 -5.440000295639038086e-01 2.089399909973144531e+01 0.000000000000000000e+00 2.000000094994902611e-03 -3.210000097751617432e-01 2.123100090026855469e+01
2.051700019836425781e+01 0.000000000000000000e+00 0.000000000000000000e+00 -5.490000247955322266e-01 2.106999969482421875e+01 0.000000000000000000e+00 2.000000094994902611e-03 -3.240000009536743164e-01 2.141099929809570312e+01
2.051499938964843750e+01 0.000000000000000000e+00 0.000000000000000000e+00 -5.490000247955322266e-01 2.106800079345703125e+01 0.000000000000000000e+00 2.000000094994902611e-03 -3.240000009536743164e-01 2.140900039672851562e+01
2.052700042724609375e+01 0.000000000000000000e+00 0.000000000000000000e+00 -5.490000247955322266e-01 2.108099937438964844e+01 0.000000000000000000e+00 2.000000094994902611e-03 -3.240000009536743164e-01 2.142200088500976562e+01
2.038899993896484375e+01 0.000000000000000000e+00 0.000000000000000000e+00 -5.450000166893005371e-01 2.093899917602539062e+01 0.000000000000000000e+00 2.000000094994902611e-03 -3.219999969005584717e-01 2.127700042724609375e+01
2.047500038146972656e+01 0.000000000000000000e+00 0.000000000000000000e+00 -5.469999909400939941e-01 2.102700042724609375e+01 0.000000000000000000e+00 2.000000094994902611e-03 -3.230000138282775879e-01 2.136700057983398438e+01
1.938699913024902344e+01 0.000000000000000000e+00 0.000000000000000000e+00 -5.180000066757202148e-01 1.990999984741210938e+01 0.000000000000000000e+00 2.000000094994902611e-03 -3.059999942779541016e-01 2.023100090026855469e+01
1.952700042724609375e+01 0.000000000000000000e+00 0.000000000000000000e+00 -5.220000147819519043e-01 2.005299949645996094e+01 0.000000000000000000e+00 2.000000094994902611e-03 -3.079999983310699463e-01 2.037700080871582031e+01
1.944499969482421875e+01 0.000000000000000000e+00 0.000000000000000000e+00 -5.199999809265136719e-01 1.996999931335449219e+01 0.000000000000000000e+00 2.000000094994902611e-03 -3.070000112056732178e-01 2.029199981689453125e+01
1.953400039672851562e+01 0.000000000000000000e+00 0.000000000000000000e+00 -5.220000147819519043e-01 2.006100082397460938e+01 0.000000000000000000e+00 2.000000094994902611e-03 -3.079999983310699463e-01 2.038500022888183594e+01
1.967700004577636719e+01 0.000000000000000000e+00 0.000000000000000000e+00 -5.260000228881835938e-01 2.020800018310546875e+01 0.000000000000000000e+00 2.000000094994902611e-03 -3.109999895095825195e-01 2.053400039672851562e+01
1.956699943542480469e+01 0.000000000000000000e+00 0.000000000000000000e+00 -5.230000019073486328e-01 2.009499931335449219e+01 0.000000000000000000e+00 2.000000094994902611e-03 -3.089999854564666748e-01 2.041900062561035156e+01
1.961599922180175781e+01 0.000000000000000000e+00 0.000000000000000000e+00 -5.239999890327453613e-01 2.014500045776367188e+01 0.000000000000000000e+00 2.000000094994902611e-03 -3.100000023841857910e-01 2.047100067138671875e+01
1.973699951171875000e+01 0.000000000000000000e+00 0.000000000000000000e+00 -5.279999971389770508e-01 2.027000045776367188e+01 0.000000000000000000e+00 2.000000094994902611e-03 -3.109999895095825195e-01 2.059700012207031250e+01
1.968700027465820312e+01 0.000000000000000000e+00 0.000000000000000000e+00 -5.260000228881835938e-01 2.021899986267089844e+01 0.000000000000000000e+00 2.000000094994902611e-03 -3.109999895095825195e-01 2.054500007629394531e+01
1.961300086975097656e+01 0.000000000000000000e+00 0.000000000000000000e+00 -5.239999890327453613e-01 2.014299964904785156e+01 0.000000000000000000e+00 2.000000094994902611e-03 -3.100000023841857910e-01 2.046800041198730469e+01
1.979000091552734375e+01 0.000000000000000000e+00 0.000000000000000000e+00 -5.289999842643737793e-01 2.032399940490722656e+01 0.000000000000000000e+00 2.000000094994902611e-03 -3.120000064373016357e-01 2.065299987792968750e+01
1.977199935913085938e+01 0.000000000000000000e+00 0.000000000000000000e+00 -5.289999842643737793e-01 2.030500030517578125e+01 0.000000000000000000e+00 2.000000094994902611e-03 -3.120000064373016357e-01 2.063299942016601562e+01
1.963899993896484375e+01 0.000000000000000000e+00 0.000000000000000000e+00 -5.249999761581420898e-01 2.016799926757812500e+01 0.000000000000000000e+00 2.000000094994902611e-03 -3.100000023841857910e-01 2.049399948120117188e+01
2.041600036621093750e+01 0.000000000000000000e+00 0.000000000000000000e+00 -5.460000038146972656e-01 2.096699905395507812e+01 0.000000000000000000e+00 2.000000094994902611e-03 -3.219999969005584717e-01 2.130599975585937500e+01
2.038999938964843750e+01 0.000000000000000000e+00 0.000000000000000000e+00 -5.450000166893005371e-01 2.094000053405761719e+01 0.000000000000000000e+00 2.000000094994902611e-03 -3.219999969005584717e-01 2.127899932861328125e+01
2.016099929809570312e+01 0.000000000000000000e+00 0.000000000000000000e+00 -5.389999747276306152e-01 2.070499992370605469e+01 0.000000000000000000e+00 2.000000094994902611e-03 -3.179999887943267822e-01 2.103899955749511719e+01
2.019599914550781250e+01 0.000000000000000000e+00 0.000000000000000000e+00 -5.400000214576721191e-01 2.074099922180175781e+01 0.000000000000000000e+00 2.000000094994902611e-03 -3.190000057220458984e-01 2.107600021362304688e+01
2.045299911499023438e+01 0.000000000000000000e+00 0.000000000000000000e+00 -5.469999909400939941e-01 2.100499916076660156e+01 0.000000000000000000e+00 2.000000094994902611e-03 -3.230000138282775879e-01 2.134499931335449219e+01
2.045000076293945312e+01 0.000000000000000000e+00 0.000000000000000000e+00 -5.469999909400939941e-01 2.100200080871582031e+01 0.000000000000000000e+00 2.000000094994902611e-03 -3.230000138282775879e-01 2.134099960327148438e+01
2.031500053405761719e+01 0.000000000000000000e+00 0.000000000000000000e+00 -5.429999828338623047e-01 2.086300086975097656e+01 0.000000000000000000e+00 2.000000094994902611e-03 -3.210000097751617432e-01 2.120000076293945312e+01
2.029000091552734375e+01 0.000000000000000000e+00 0.000000000000000000e+00 -5.429999828338623047e-01 2.083799934387207031e+01 0.000000000000000000e+00 2.000000094994902611e-03 -3.199999928474426270e-01 2.117399978637695312e+01
2.033200073242187500e+01 0.000000000000000000e+00 0.000000000000000000e+00 -5.440000295639038086e-01 2.088100051879882812e+01 0.000000000000000000e+00 2.000000094994902611e-03 -3.210000097751617432e-01 2.121800041198730469e+01
2.029599952697753906e+01 0.000000000000000000e+00 0.000000000000000000e+00 -5.429999828338623047e-01 2.084300041198730469e+01 0.000000000000000000e+00 2.000000094994902611e-03 -3.199999928474426270e-01 2.118000030517578125e+01
2.030400085449218750e+01 0.000000000000000000e+00 0.000000000000000000e+00 -5.429999828338623047e-01 2.085199928283691406e+01 0.000000000000000000e+00 2.000000094994902611e-03 -3.199999928474426270e-01 2.118899917602539062e+01
2.029100036621093750e+01 0.000000000000000000e+00 0.000000000000000000e+00 -5.429999828338623047e-01 2.083900070190429688e+01 0.000000000000000000e+00 2.000000094994902611e-03 -3.199999928474426270e-01 2.117499923706054688e+01