-6.084553515625000000e+04
-6.084503125000000000e+04
-6.084233203125000000e+04
-6.084343750000000000e+04
-6.084576562500000000e+04
-6.084711718750000000e+04
-6.084457421875000000e+04
-6.084603906250000000e+04
-6.083994921875000000e+04
-6.083832031250000000e+04
-6.083748437500000000e+04
-6.083449609375000000e+04
-6.083781250000000000e+04
-6.083724609375000000e+04
-6.083750781250000000e+04
-6.083856250000000000e+04
-6.083897656250000000e+04
-6.084051562500000000e+04
-6.084027734375000000e+04
-6.083821875000000000e+04
-6.083712500000000000e+04
-6.083643750000000000e+04
-6.083664453125000000e+04
-6.083677343750000000e+04
-6.083627734375000000e+04
-6.083630468750000000e+04
-6.083776171875000000e+04
-6.083869531250000000e+04
-6.084094531250000000e+04
-6.083992968750000000e+04
-6.082667578125000000e+04
-6.082586718750000000e+04
-6.082844921875000000e+04
-6.082914453125000000e+04
-6.082653125000000000e+04
-6.082650781250000000e+04
-6.082568750000000000e+04
-6.082725390625000000e+04
-6.082603125000000000e+04
-6.082669921875000000e+04
-6.082873437500000000e+04
-6.083219531250000000e+04
-6.083318359375000000e+04
-6.082978515625000000e+04
-6.082958593750000000e+04
-6.082755468750000000e+04
-6.082746093750000000e+04
-6.082925000000000000e+04
-6.082683984375000000e+04
-6.083017968750000000e+04
-6.082848828125000000e+04
-6.082757812500000000e+04
-6.082542578125000000e+04
-6.082469140625000000e+04
-6.082637500000000000e+04
-6.082800781250000000e+04
-6.082960156250000000e+04
-6.082705078125000000e+04
-6.082567578125000000e+04
-6.082698046875000000e+04
-6.082628906250000000e+04
-6.082701953125000000e+04
-6.082458984375000000e+04
-6.082310937500000000e+04
-6.082973437500000000e+04
-6.082885546875000000e+04
-6.082926562500000000e+04
-6.082705859375000000e+04
-6.084658984375000000e+04
-6.084989453125000000e+04
-6.084753906250000000e+04
-6.084832421875000000e+04
-6.084872656250000000e+04
-6.085135937500000000e+04
-6.084850390625000000e+04
-6.084797656250000000e+04
-6.084965625000000000e+04
-6.084965234375000000e+04
-6.084959765625000000e+04
-6.084985937500000000e+04
-6.083806640625000000e+04
-6.083911718750000000e+04
-6.083882421875000000e+04
-6.083331640625000000e+04
-6.083478515625000000e+04
-6.083565625000000000e+04
-6.083523437500000000e+04
-6.083482421875000000e+04
-6.083459375000000000e+04
-6.083485156250000000e+04
-6.083191796875000000e+04
-6.083460937500000000e+04
-6.083403125000000000e+04
-6.083416796875000000e+04
-6.083310937500000000e+04
-6.083508203125000000e+04
-6.083425781250000000e+04
-6.083364453125000000e+04
-6.083382031250000000e+04
-6.083464843750000000e+04
-6.083615625000000000e+04
-6.083456250000000000e+04
-6.083303125000000000e+04
-6.083285156250000000e+04
-6.083462890625000000e+04
-6.083341406250000000e+04
-6.083967187500000000e+04
-6.083971875000000000e+04
-6.084023046875000000e+04
-6.084220703125000000e+04
-6.084300000000000000e+04
-6.083974609375000000e+04
-6.084200390625000000e+04
-6.083796093750000000e+04
-6.083916015625000000e+04
-6.084270312500000000e+04
-6.083915234375000000e+04
-6.084000000000000000e+04
-6.084119921875000000e+04
-6.082656640625000000e+04
-6.082643750000000000e+04
-6.082744921875000000e+04
-6.082975781250000000e+04
-6.083088671875000000e+04
-6.082758593750000000e+04
-6.083031640625000000e+04
-6.082920703125000000e+04
-6.082918750000000000e+04
-6.082955468750000000e+04
-6.083328906250000000e+04
-6.083337109375000000e+04
-6.083149609375000000e+04
-6.083042578125000000e+04
-6.083086718750000000e+04
-6.083274609375000000e+04
-6.083577343750000000e+04
-6.083318750000000000e+04
-6.083233984375000000e+04
-6.083412890625000000e+04
-6.083483984375000000e+04
-6.083909375000000000e+04
-6.082952734375000000e+04
-6.083354687500000000e+04
-6.082656250000000000e+04
-6.083097656250000000e+04
-6.083001562500000000e+04
-6.082896875000000000e+04
-6.083185156250000000e+04
-6.083146093750000000e+04
-6.083449609375000000e+04
-6.083671875000000000e+04
-6.083492578125000000e+04
-6.083344531250000000e+04
-6.083491796875000000e+04
-6.083142578125000000e+04
-6.083383984375000000e+04
-6.083543750000000000e+04
-6.083429296875000000e+04
-6.083641796875000000e+04
-6.083405859375000000e+04
-6.085007421875000000e+04
-6.084951562500000000e+04
-6.085010156250000000e+04
-6.085331250000000000e+04
-6.085037500000000000e+04
-6.085059765625000000e+04
-6.083907421875000000e+04
-6.084091796875000000e+04
-6.083927734375000000e+04
-6.083639062500000000e+04
-6.083695312500000000e+04
-6.083852734375000000e+04
-6.083839843750000000e+04
-6.083849218750000000e+04
-6.083361718750000000e+04
-6.083628515625000000e+04
-6.083899609375000000e+04
-6.083611718750000000e+04
-6.083640234375000000e+04
-6.083900000000000000e+04
-6.084076953125000000e+04
-6.084115234375000000e+04
-6.083801562500000000e+04
-6.083846484375000000e+04
-6.084005859375000000e+04
-6.082838281250000000e+04
-6.082487109375000000e+04
-6.082598046875000000e+04
-6.082499609375000000e+04
-6.082717968750000000e+04
-6.082784375000000000e+04
-6.082971093750000000e+04
-6.083205078125000000e+04
-6.083144531250000000e+04
-6.083246484375000000e+04
-6.083153515625000000e+04
-6.083537109375000000e+04
-6.083484375000000000e+04
-6.083514843750000000e+04
-6.083710156250000000e+04
-6.083660156250000000e+04
-6.083248046875000000e+04
-6.083336328125000000e+04
-6.083532031250000000e+04
-6.083313281250000000e+04
-6.083437500000000000e+04
-6.083135546875000000e+04
-6.083250781250000000e+04
-6.083200781250000000e+04
-6.083637890625000000e+04
-6.083587500000000000e+04
-6.083450390625000000e+04
-6.083521093750000000e+04
-6.083240234375000000e+04
-6.083171093750000000e+04
-6.082787109375000000e+04
-6.083471875000000000e+04
-6.083214453125000000e+04
-6.083164453125000000e+04
-6.084723437500000000e+04
-6.084880468750000000e+04
-6.085006250000000000e+04
-6.084798437500000000e+04
-6.084651562500000000e+04
-6.084701562500000000e+04
-6.084659375000000000e+04
-6.084630468750000000e+04
-6.084766406250000000e+04
-6.085033593750000000e+04
-6.084746484375000000e+04
-6.084842578125000000e+04
-6.083535546875000000e+04
-6.083103515625000000e+04
-6.083285156250000000e+04
-6.083293750000000000e+04
-6.083700781250000000e+04
-6.083364453125000000e+04
-6.083480078125000000e+04
-6.083587500000000000e+04
-6.083566796875000000e+04
-6.083571093750000000e+04
-6.083672265625000000e+04
-6.084555078125000000e+04
-6.084338671875000000e+04
-6.084225000000000000e+04
-6.083994531250000000e+04
-6.084113671875000000e+04
-6.083982812500000000e+04
-6.083819531250000000e+04
-6.083850781250000000e+04
-6.084177343750000000e+04
-6.083871093750000000e+04
-6.083929296875000000e+04
-6.084079296875000000e+04
-6.083991796875000000e+04
-6.083215234375000000e+04
-6.082869140625000000e+04
-6.082868359375000000e+04
-6.083147265625000000e+04
-6.082749218750000000e+04
-6.083152343750000000e+04
-6.082928515625000000e+04
-6.082228515625000000e+04
-6.082395703125000000e+04
-6.082664062500000000e+04
-6.082411328125000000e+04
-6.082700000000000000e+04
-6.082858984375000000e+04
-6.082491406250000000e+04
-6.082783203125000000e+04
-6.082626953125000000e+04
-6.082891406250000000e+04
-6.083665234375000000e+04
-6.082976562500000000e+04
-6.083164843750000000e+04
-6.083096093750000000e+04
-6.083061718750000000e+04
-6.083417187500000000e+04
-6.083240625000000000e+04
-6.083125781250000000e+04
-6.082851953125000000e+04
-6.083271484375000000e+04
-6.083687890625000000e+04
-6.083229296875000000e+04
-6.083539843750000000e+04
-6.082928515625000000e+04
-6.083134765625000000e+04
-6.083101562500000000e+04
-6.083181250000000000e+04
-6.084833203125000000e+04
-6.084898828125000000e+04
-6.084714453125000000e+04
-6.084969140625000000e+04
-6.084371093750000000e+04
-6.084366796875000000e+04
-6.084487500000000000e+04
-6.084430468750000000e+04
-6.084527734375000000e+04
-6.084341015625000000e+04
-6.084276953125000000e+04
-6.084119531250000000e+04
-6.084234375000000000e+04
-6.084155078125000000e+04
-6.084354296875000000e+04
-6.084476171875000000e+04
-6.084263671875000000e+04
-6.083807031250000000e+04
-6.083665625000000000e+04
-6.083359375000000000e+04
-6.083232031250000000e+04
-6.083340234375000000e+04
-6.083141796875000000e+04
-6.083287109375000000e+04
-6.083180078125000000e+04
-6.083208984375000000e+04
-6.083008593750000000e+04
-6.082974218750000000e+04
-6.083116406250000000e+04
-6.083485156250000000e+04
-6.083646875000000000e+04
-6.083320312500000000e+04
-6.083206250000000000e+04
-6.083204687500000000e+04
-6.083224609375000000e+04
-6.083264062500000000e+04
-6.083441406250000000e+04
-6.083402343750000000e+04
-6.083512890625000000e+04
-6.083277734375000000e+04
-6.083502343750000000e+04
-6.083555859375000000e+04
-6.084287890625000000e+04
-6.084116796875000000e+04
-6.084133984375000000e+04
-6.084128125000000000e+04
-6.084295703125000000e+04
-6.084481640625000000e+04
-6.084551562500000000e+04
-6.083016406250000000e+04
-6.083360937500000000e+04
-6.082619140625000000e+04
-6.083066796875000000e+04
-6.082625781250000000e+04
-6.082570312500000000e+04
-6.082998437500000000e+04
-6.082851562500000000e+04
-6.082794140625000000e+04
-6.082783593750000000e+04
-6.082801171875000000e+04
-6.082829296875000000e+04
-6.083151171875000000e+04
-6.083132421875000000e+04
-6.082980859375000000e+04
-6.083089843750000000e+04
-6.083046484375000000e+04
-6.082910937500000000e+04
-6.083149609375000000e+04
-6.082642578125000000e+04
-6.082682812500000000e+04
-6.082700390625000000e+04
-6.082903515625000000e+04
-6.083312500000000000e+04
-6.083038671875000000e+04
-6.083187109375000000e+04
-6.083203906250000000e+04
-6.083239843750000000e+04
-6.083052343750000000e+04
-6.083549218750000000e+04
-6.083361718750000000e+04
-6.083542187500000000e+04
-6.083280078125000000e+04
-6.083282812500000000e+04
-6.083073437500000000e+04
-6.083087500000000000e+04
-6.083067187500000000e+04
-6.082841406250000000e+04
-6.082835546875000000e+04
-6.082962890625000000e+04
-6.082940234375000000e+04
-6.082983203125000000e+04
-6.083058203125000000e+04
-6.082896875000000000e+04
-6.082910156250000000e+04
-6.085194140625000000e+04
-6.085157421875000000e+04
-6.085137109375000000e+04
-6.085217187500000000e+04
-6.085304687500000000e+04
-6.085095703125000000e+04
-6.085042578125000000e+04
-6.085473828125000000e+04
-6.085354687500000000e+04
-6.084093359375000000e+04
-6.084174218750000000e+04
-6.083861718750000000e+04
-6.084171484375000000e+04
-6.084191015625000000e+04
-6.083885937500000000e+04
-6.083778515625000000e+04
-6.083609375000000000e+04
-6.083730859375000000e+04
-6.083992187500000000e+04
-6.083925000000000000e+04
-6.083857421875000000e+04
-6.083608984375000000e+04
-6.083498828125000000e+04
-6.083100781250000000e+04
-6.082948828125000000e+04
-6.082657812500000000e+04
-6.083055078125000000e+04
-6.083124218750000000e+04
-6.083184375000000000e+04
-6.083283203125000000e+04
-6.083100781250000000e+04
-6.083307812500000000e+04
-6.083167578125000000e+04
-6.083178125000000000e+04
-6.083110546875000000e+04
-6.082891015625000000e+04
-6.083151171875000000e+04
-6.083237500000000000e+04
-6.083208203125000000e+04
-6.083080468750000000e+04
-6.082933203125000000e+04
-6.083275390625000000e+04
-6.083316015625000000e+04
-6.083271484375000000e+04
-6.083187500000000000e+04
-6.083157421875000000e+04
-6.083071484375000000e+04
-6.083653125000000000e+04
-6.083168750000000000e+04
-6.082803906250000000e+04
-6.082793359375000000e+04
-6.082996093750000000e+04
-6.083051171875000000e+04
-6.082860546875000000e+04
-6.082872656250000000e+04
-6.082847265625000000e+04
-6.084581250000000000e+04
-6.084633593750000000e+04
-6.084602343750000000e+04
-6.084612500000000000e+04
-6.084766406250000000e+04
-6.084991015625000000e+04
-6.084925000000000000e+04
-6.084828515625000000e+04
-6.084841406250000000e+04
-6.084095312500000000e+04
-6.083781250000000000e+04
-6.083863671875000000e+04
-6.083694921875000000e+04
-6.083554687500000000e+04
-6.083700000000000000e+04
-6.083623046875000000e+04
-6.083777343750000000e+04
-6.083733593750000000e+04
-6.083478906250000000e+04
-6.083588281250000000e+04
-6.083722656250000000e+04
-6.083718750000000000e+04
-6.083801562500000000e+04
-6.084145312500000000e+04
-6.084071875000000000e+04
-6.084095312500000000e+04
-6.084075781250000000e+04
-6.084112109375000000e+04
-6.084028906250000000e+04
-6.084120703125000000e+04
-6.084090234375000000e+04
-6.083890625000000000e+04
-6.083996484375000000e+04
-6.084035937500000000e+04
-6.084103906250000000e+04
-6.083911328125000000e+04
-6.084025781250000000e+04
-6.084196484375000000e+04
-6.083164453125000000e+04
-6.083174609375000000e+04
-6.082585937500000000e+04
-6.082125390625000000e+04
-6.082669921875000000e+04
-6.082979296875000000e+04
-6.083149609375000000e+04
-6.083177343750000000e+04
-6.082826171875000000e+04
-6.083062109375000000e+04
-6.082990625000000000e+04
-6.083244140625000000e+04
-6.082998437500000000e+04
-6.083098828125000000e+04
-6.083274218750000000e+04
-6.083275000000000000e+04
-6.083385156250000000e+04
-6.083042968750000000e+04
-6.083056640625000000e+04
-6.083245703125000000e+04
-6.083210937500000000e+04
-6.082969140625000000e+04
-6.083008203125000000e+04
-6.083283593750000000e+04
-6.083287500000000000e+04
-6.083130078125000000e+04
-6.083307031250000000e+04
-6.083258593750000000e+04
-6.083436718750000000e+04
-6.083367187500000000e+04
-6.083280078125000000e+04
-6.083158203125000000e+04
-6.083123046875000000e+04
-6.083015234375000000e+04
-6.083611328125000000e+04
-6.083527734375000000e+04
-6.083371875000000000e+04
-6.083617187500000000e+04
-6.083541406250000000e+04
-6.083494531250000000e+04
-6.084408203125000000e+04
-6.083988281250000000e+04
-6.083919140625000000e+04
-6.084615625000000000e+04
-6.084401953125000000e+04
-6.084565234375000000e+04
-6.084546484375000000e+04
-6.085010156250000000e+04
-6.084727734375000000e+04
-6.084849218750000000e+04
-6.084692578125000000e+04
-6.084925390625000000e+04
-6.085007421875000000e+04
-6.084903515625000000e+04
-6.084974609375000000e+04
-6.083843359375000000e+04
-6.083608593750000000e+04
-6.083580859375000000e+04
-6.083775781250000000e+04
-6.083706250000000000e+04
-6.083907421875000000e+04
-6.083657812500000000e+04
-6.083993750000000000e+04
-6.084119921875000000e+04
-6.084210156250000000e+04
-6.083797656250000000e+04
-6.084110546875000000e+04
-6.084002343750000000e+04
-6.084273046875000000e+04
-6.084153125000000000e+04
-6.084026953125000000e+04
-6.083961718750000000e+04
-6.083681250000000000e+04
-6.083859375000000000e+04
-6.083821093750000000e+04
-6.084057421875000000e+04
-6.083868750000000000e+04
-6.084164062500000000e+04
-6.082433203125000000e+04
-6.082214843750000000e+04
-6.082291015625000000e+04
-6.082544921875000000e+04
-6.082855859375000000e+04
-6.082924218750000000e+04
-6.082926562500000000e+04
-6.083123046875000000e+04
-6.083137890625000000e+04
-6.082993359375000000e+04
-6.083133593750000000e+04
-6.082751562500000000e+04
-6.083210156250000000e+04
-6.083285156250000000e+04
-6.083283593750000000e+04
-6.083457812500000000e+04
-6.083151562500000000e+04
-6.083091796875000000e+04
-6.083239453125000000e+04
-6.083105078125000000e+04
-6.082984375000000000e+04
-6.083217187500000000e+04
-6.083441015625000000e+04
-6.083176171875000000e+04
-6.083160156250000000e+04
-6.083321875000000000e+04
-6.083276562500000000e+04
-6.083440234375000000e+04
-6.083559375000000000e+04
-6.083741015625000000e+04
-6.083423437500000000e+04
-6.083626562500000000e+04
-6.083519140625000000e+04
-6.083526562500000000e+04
-6.083690234375000000e+04
-6.083764843750000000e+04
-6.083508593750000000e+04
-6.083820312500000000e+04
-6.083683984375000000e+04
-6.083540234375000000e+04
-6.083608203125000000e+04
-6.084851953125000000e+04
-6.085094921875000000e+04
-6.085103125000000000e+04
-6.085072265625000000e+04
-6.084978125000000000e+04
-6.085062109375000000e+04
-6.085090234375000000e+04
-6.085153906250000000e+04
-6.084976953125000000e+04
-6.085138671875000000e+04
-6.085175000000000000e+04
-6.084999218750000000e+04
-6.085048437500000000e+04
-6.084996484375000000e+04
-6.085089453125000000e+04
-6.085011328125000000e+04
-6.083443750000000000e+04
-6.083737890625000000e+04
-6.083701171875000000e+04
-6.083730078125000000e+04
-6.083511718750000000e+04
-6.083548828125000000e+04
-6.083528515625000000e+04
-6.083730468750000000e+04
-6.083786328125000000e+04
-6.083870312500000000e+04
-6.083874218750000000e+04
-6.083962109375000000e+04
-6.083779687500000000e+04
-6.083689453125000000e+04
-6.082975781250000000e+04
-6.082987109375000000e+04
-6.082879296875000000e+04
-6.083034375000000000e+04
-6.082982812500000000e+04
-6.083455078125000000e+04
-6.083030859375000000e+04
-6.082682421875000000e+04
-6.082949609375000000e+04
-6.083095312500000000e+04
-6.082965625000000000e+04
-6.083119531250000000e+04
-6.082869140625000000e+04
-6.083146484375000000e+04
-6.083109375000000000e+04
-6.082998437500000000e+04
-6.083146484375000000e+04
-6.083345312500000000e+04
-6.082841015625000000e+04
-6.082801171875000000e+04
-6.083029687500000000e+04
-6.082785546875000000e+04
-6.083125390625000000e+04
-6.082692578125000000e+04
-6.082995703125000000e+04
-6.083208593750000000e+04
-6.083510156250000000e+04
-6.083440625000000000e+04
-6.083243359375000000e+04
-6.083362109375000000e+04
-6.083380468750000000e+04
-6.083211718750000000e+04
-6.083211328125000000e+04
-6.083442187500000000e+04
-6.083417968750000000e+04
-6.083668359375000000e+04
-6.083553125000000000e+04
-6.083340625000000000e+04
-6.083617968750000000e+04
-6.083299218750000000e+04
-6.083183984375000000e+04
-6.084881640625000000e+04
-6.084482421875000000e+04
-6.084717968750000000e+04
-6.084460937500000000e+04
-6.085103515625000000e+04
-6.085131640625000000e+04
-6.083347265625000000e+04
-6.083367187500000000e+04
-6.083327734375000000e+04
-6.083266406250000000e+04
-6.083435156250000000e+04
-6.083203906250000000e+04
-6.083308203125000000e+04
-6.083364843750000000e+04
-6.083271484375000000e+04
-6.083528515625000000e+04
-6.083247656250000000e+04
-6.083471093750000000e+04
-6.083641796875000000e+04
-6.083584765625000000e+04
-6.083445703125000000e+04
-6.083481640625000000e+04
-6.083433203125000000e+04
-6.083164843750000000e+04
-6.083340625000000000e+04
-6.083519531250000000e+04
-6.083739062500000000e+04
-6.083703125000000000e+04
-6.083329687500000000e+04
-6.083600781250000000e+04
-6.083396484375000000e+04
-6.083723828125000000e+04
-6.083723828125000000e+04
-6.083969531250000000e+04
-6.084021484375000000e+04
-6.083827734375000000e+04
-6.083835156250000000e+04
-6.083844531250000000e+04
-6.083670312500000000e+04
-6.083825781250000000e+04
-6.084285156250000000e+04
-6.084050390625000000e+04
-6.082554687500000000e+04
-6.082726171875000000e+04
-6.083148437500000000e+04
-6.082862109375000000e+04
-6.082653125000000000e+04
-6.082370703125000000e+04
-6.082650000000000000e+04
-6.083030468750000000e+04
-6.082946875000000000e+04
-6.083062109375000000e+04
-6.083124218750000000e+04
-6.082981250000000000e+04
-6.082602343750000000e+04
-6.082566406250000000e+04
-6.082537890625000000e+04
-6.082957812500000000e+04
-6.082978906250000000e+04
-6.082897265625000000e+04
-6.083398437500000000e+04
-6.083600390625000000e+04
-6.083498437500000000e+04
-6.083225390625000000e+04
-6.083287109375000000e+04
-6.083307031250000000e+04
-6.083230468750000000e+04
-6.083071484375000000e+04
-6.084541015625000000e+04
-6.084606250000000000e+04
-6.084797656250000000e+04
-6.084904687500000000e+04
-6.084726562500000000e+04
-6.084746484375000000e+04
-6.084153125000000000e+04
-6.083994921875000000e+04
-6.083800781250000000e+04
-6.083768750000000000e+04
-6.083519531250000000e+04
-6.083792187500000000e+04
-6.083467968750000000e+04
-6.083684375000000000e+04
-6.083650781250000000e+04
-6.083345312500000000e+04
-6.083577734375000000e+04
-6.084262109375000000e+04
-6.083640234375000000e+04
-6.084091796875000000e+04
-6.084065625000000000e+04
-6.083912890625000000e+04
-6.084166015625000000e+04
-6.083764062500000000e+04
-6.083870703125000000e+04
-6.083778906250000000e+04
-6.082937109375000000e+04
-6.082802343750000000e+04
-6.083114062500000000e+04
-6.082674218750000000e+04
-6.082838671875000000e+04
-6.082517578125000000e+04
-6.082855468750000000e+04
-6.082631250000000000e+04
-6.082686328125000000e+04
-6.082787109375000000e+04
-6.083208203125000000e+04
-6.083072656250000000e+04
-6.083169921875000000e+04
-6.083284765625000000e+04
-6.082773437500000000e+04
-6.082978906250000000e+04
-6.082723828125000000e+04
-6.082991015625000000e+04
-6.083166406250000000e+04
-6.083267187500000000e+04
-6.083251171875000000e+04
-6.083142578125000000e+04
-6.082946875000000000e+04
-6.083157421875000000e+04
-6.082881250000000000e+04
-6.083141406250000000e+04
-6.083089453125000000e+04
-6.083189453125000000e+04
-6.083317578125000000e+04
-6.083021875000000000e+04
-6.083012500000000000e+04
-6.083034375000000000e+04
-6.083237890625000000e+04
-6.083386718750000000e+04
-6.083407031250000000e+04
-6.083785546875000000e+04
-6.083411718750000000e+04
-6.083215625000000000e+04
-6.083630859375000000e+04
-6.083707421875000000e+04
-6.083598046875000000e+04
