8.914138793945312500e+00 1.113937187194824219e+01 2.349453210830688477e+00 1.113937187194824219e+01 -8.736516952514648438e+00 1.052945613861083984e+01 2.349453210830688477e+00 1.052945613861083984e+01 1.080147385597229004e+00
2.216660690307617188e+01 7.583240509033203125e+00 -4.848578929901123047e+00 7.583240509033203125e+00 1.360122299194335938e+01 7.044688701629638672e+00 -4.848578929901123047e+00 7.044688701629638672e+00 1.122163295745849609e+01
3.543533706665039062e+01 6.042732715606689453e+00 -4.461520195007324219e+00 6.042732715606689453e+00 -4.325783252716064453e+00 -1.415940046310424805e+00 -4.461520195007324219e+00 -1.415940046310424805e+00 2.750276947021484375e+01
1.758389663696289062e+01 9.340290427207946777e-01 -1.123031616210937500e+01 9.340290427207946777e-01 -6.004940986633300781e+00 6.829624176025390625e+00 -1.123031616210937500e+01 6.829624176025390625e+00 -1.555669546127319336e+00
2.151738357543945312e+01 1.450017452239990234e+01 3.307872056961059570e+00 1.450017452239990234e+01 4.818999767303466797e+00 8.521929740905761719e+00 3.307872056961059570e+00 8.521929740905761719e+00 1.991076850891113281e+01
1.354977607727050781e+01 -8.716023445129394531e+00 4.138856410980224609e+00 -8.716023445129394531e+00 -8.538775444030761719e+00 -1.060284996032714844e+01 4.138856410980224609e+00 -1.060284996032714844e+01 -4.875953495502471924e-01
1.142290210723876953e+01 1.955356979370117188e+01 3.956789493560791016e+00 1.955356979370117188e+01 2.118396568298339844e+01 7.004246711730957031e+00 3.956789493560791016e+00 7.004246711730957031e+00 4.870343685150146484e+00
1.410471439361572266e+01 3.693366050720214844e+00 -3.143998622894287109e+00 3.693366050720214844e+00 1.947570610046386719e+01 7.676627159118652344e+00 -3.143998622894287109e+00 7.676627159118652344e+00 7.475991249084472656e-01
7.581464767456054688e+00 4.411613643169403076e-01 -8.411134719848632812e+00 4.411613643169403076e-01 1.181883907318115234e+01 2.025875329971313477e+00 -8.411134719848632812e+00 2.025875329971313477e+00 1.666868972778320312e+01
2.163965988159179688e+01 -1.150169467926025391e+01 2.425660848617553711e+00 -1.150169467926025391e+01 -1.679599642753601074e+00 1.036366271972656250e+01 2.425660848617553711e+00 1.036366271972656250e+01 -2.065670728683471680e+00
1.274349308013916016e+01 1.245922946929931641e+01 -6.528805255889892578e+00 1.245922946929931641e+01 1.115995216369628906e+01 1.986480522155761719e+01 -6.528805255889892578e+00 1.986480522155761719e+01 -4.760493278503417969e+00
1.513841438293457031e+01 -3.648160934448242188e+00 -2.083203077316284180e+00 -3.648160934448242188e+00 1.953604316711425781e+01 1.816752243041992188e+01 -2.083203077316284180e+00 1.816752243041992188e+01 6.917373180389404297e+00
1.436434555053710938e+01 -1.116848850250244141e+01 7.523349523544311523e-01 -1.116848850250244141e+01 5.673912048339843750e+00 -4.999980449676513672e+00 7.523349523544311523e-01 -4.999980449676513672e+00 -7.568213343620300293e-01
1.829392623901367188e+01 -6.241003513336181641e+00 -3.288510322570800781e+00 -6.241003513336181641e+00 1.376488113403320312e+01 -1.279758739471435547e+01 -3.288510322570800781e+00 -1.279758739471435547e+01 9.274995803833007812e+00
1.194761466979980469e+01 -2.163028955459594727e+00 7.694131851196289062e+00 -2.163028955459594727e+00 1.064191055297851562e+01 5.518287658691406250e+00 7.694131851196289062e+00 5.518287658691406250e+00 -9.749329090118408203e-01
1.941635513305664062e+01 -1.105300903320312500e+01 -4.948899269104003906e+00 -1.105300903320312500e+01 1.551004791259765625e+01 1.596296191215515137e+00 -4.948899269104003906e+00 1.596296191215515137e+00 -1.671995997428894043e+00
2.306996583938598633e+00 -9.830306053161621094e+00 -8.716316223144531250e-01 -9.830306053161621094e+00 3.145146560668945312e+01 -2.903947114944458008e+00 -8.716316223144531250e-01 -2.903947114944458008e+00 -9.711821556091308594e+00
1.650415039062500000e+01 -1.125936865806579590e+00 1.565983176231384277e+00 -1.125936865806579590e+00 -7.908606052398681641e+00 1.919522285461425781e+01 1.565983176231384277e+00 1.919522285461425781e+01 -3.811828613281250000e+00
2.758151435852050781e+01 5.722271919250488281e+00 -1.294587707519531250e+01 5.722271919250488281e+00 -4.245475769042968750e+00 -2.654295682907104492e+00 -1.294587707519531250e+01 -2.654295682907104492e+00 1.699300575256347656e+01
3.151689338684082031e+01 -8.906248092651367188e+00 -9.087392807006835938e+00 -8.906248092651367188e+00 2.377759933471679688e+01 -1.444472408294677734e+01 -9.087392807006835938e+00 -1.444472408294677734e+01 3.432427597045898438e+01
1.513625621795654297e+00 -5.365515232086181641e+00 -2.824290990829467773e+00 -5.365515232086181641e+00 5.430699348449707031e+00 5.122156143188476562e+00 -2.824290990829467773e+00 5.122156143188476562e+00 1.448346996307373047e+01
1.206631183624267578e+01 1.101989841461181641e+01 -1.753855705261230469e+01 1.101989841461181641e+01 2.844296455383300781e+00 -8.238734245300292969e+00 -1.753855705261230469e+01 -8.238734245300292969e+00 -5.277435183525085449e-01
1.213920563459396362e-01 -3.357581198215484619e-01 -2.933110237121582031e+00 -3.357581198215484619e-01 3.925821065902709961e+00 -7.540343761444091797e+00 -2.933110237121582031e+00 -7.540343761444091797e+00 1.842122459411621094e+01
1.832373142242431641e+00 5.000673770904541016e+00 -5.782217025756835938e+00 5.000673770904541016e+00 3.262075185775756836e+00 1.968946075439453125e+01 -5.782217025756835938e+00 1.968946075439453125e+01 5.257772922515869141e+00
-1.906396484375000000e+01 -1.972855687141418457e+00 -5.458120346069335938e+00 -1.972855687141418457e+00 4.109605026245117188e+01 -7.051084995269775391e+00 -5.458120346069335938e+00 -7.051084995269775391e+00 2.199129486083984375e+01
1.549382090568542480e+00 3.692568778991699219e+00 1.043105125427246094e+01 3.692568778991699219e+00 -1.525778198242187500e+01 6.426906585693359375e+00 1.043105125427246094e+01 6.426906585693359375e+00 6.024230003356933594e+00
1.877784156799316406e+01 1.157243919372558594e+01 3.528015136718750000e+00 1.157243919372558594e+01 1.302184963226318359e+01 -3.071319818496704102e+00 3.528015136718750000e+00 -3.071319818496704102e+00 1.100770568847656250e+01
-5.634264469146728516e+00 6.833580017089843750e+00 -7.304255485534667969e+00 6.833580017089843750e+00 1.535320854187011719e+01 5.806567192077636719e+00 -7.304255485534667969e+00 5.806567192077636719e+00 1.230297946929931641e+01
-8.890627861022949219e+00 -1.283989620208740234e+01 1.744696807861328125e+01 -1.283989620208740234e+01 1.178930282592773438e+01 -1.500687313079833984e+01 1.744696807861328125e+01 -1.500687313079833984e+01 6.241663932800292969e+00
1.358337306976318359e+01 2.092258214950561523e+00 -7.444356918334960938e+00 2.092258214950561523e+00 3.067603826522827148e+00 -2.651097774505615234e+00 -7.444356918334960938e+00 -2.651097774505615234e+00 5.312274932861328125e+00
1.669374656677246094e+01 4.357464313507080078e+00 2.452319860458374023e+00 4.357464313507080078e+00 2.141962289810180664e+00 1.213426589965820312e+00 2.452319860458374023e+00 1.213426589965820312e+00 -9.996450543403625488e-01
1.505474090576171875e+01 -8.140590190887451172e-01 9.587771415710449219e+00 -8.140590190887451172e-01 3.039964675903320312e+01 3.461488246917724609e+00 9.587771415710449219e+00 3.461488246917724609e+00 2.316487312316894531e+00
3.900905227661132812e+01 3.388596773147583008e+00 1.024103069305419922e+01 3.388596773147583008e+00 3.907298278808593750e+01 -6.661091804504394531e+00 1.024103069305419922e+01 -6.661091804504394531e+00 2.641109466552734375e+01
1.113443660736083984e+01 1.006396865844726562e+01 1.375366592407226562e+01 1.006396865844726562e+01 1.111446380615234375e+00 -8.747148513793945312e+00 1.375366592407226562e+01 -8.747148513793945312e+00 -1.278768634796142578e+01
1.128707647323608398e+00 -1.297998428344726562e+01 6.439293384552001953e+00 -1.297998428344726562e+01 -1.277573406696319580e-01 1.535693645477294922e+00 6.439293384552001953e+00 1.535693645477294922e+00 -5.903090476989746094e+00
9.365384101867675781e+00 -1.069004893302917480e+00 7.586901664733886719e+00 -1.069004893302917480e+00 6.330044746398925781e+00 4.864047527313232422e+00 7.586901664733886719e+00 4.864047527313232422e+00 3.318586349487304688e+01
1.894874691963195801e+00 4.713740825653076172e+00 6.881711483001708984e-01 4.713740825653076172e+00 3.119813156127929688e+01 -1.312448829412460327e-01 6.881711483001708984e-01 -1.312448829412460327e-01 1.103309988975524902e+00
1.647736668586730957e+00 7.884438514709472656e+00 7.929938316345214844e+00 7.884438514709472656e+00 2.255380439758300781e+01 1.595468878746032715e+00 7.929938316345214844e+00 1.595468878746032715e+00 1.181117153167724609e+01
2.703366661071777344e+01 1.252766990661621094e+01 1.122450733184814453e+01 1.252766990661621094e+01 3.727556943893432617e+00 1.049546337127685547e+01 1.122450733184814453e+01 1.049546337127685547e+01 1.699230575561523438e+01
1.896652221679687500e+01 3.941294908523559570e+00 -1.761155843734741211e+00 3.941294908523559570e+00 2.491280937194824219e+01 1.139426422119140625e+01 -1.761155843734741211e+00 1.139426422119140625e+01 6.043030929565429688e+01
1.032016372680664062e+01 -1.247834777832031250e+01 2.182036876678466797e+00 -1.247834777832031250e+01 1.687413215637207031e+01 -1.166271209716796875e+01 2.182036876678466797e+00 -1.166271209716796875e+01 1.214292049407958984e+01
3.562380790710449219e+00 -9.794535636901855469e+00 1.516260623931884766e+01 -9.794535636901855469e+00 3.096650314331054688e+01 4.254025518894195557e-01 1.516260623931884766e+01 4.254025518894195557e-01 1.899189186096191406e+01
7.449986934661865234e+00 1.026349735260009766e+01 3.312490701675415039e+00 1.026349735260009766e+01 3.330245971679687500e+01 7.473073959350585938e+00 3.312490701675415039e+00 7.473073959350585938e+00 4.521523475646972656e+00
4.674724578857421875e+01 -1.740780067443847656e+01 -5.968897342681884766e+00 -1.740780067443847656e+01 1.972483444213867188e+01 -4.295727252960205078e+00 -5.968897342681884766e+00 -4.295727252960205078e+00 2.762224960327148438e+01
5.435819625854492188e+00 2.631896018981933594e+00 -4.667772352695465088e-01 2.631896018981933594e+00 1.258013439178466797e+01 3.992132186889648438e+00 -4.667772352695465088e-01 3.992132186889648438e+00 -6.140231609344482422e+00
5.176135063171386719e+00 7.818913936614990234e+00 -7.556614875793457031e-01 7.818913936614990234e+00 5.115564823150634766e+00 6.587221622467041016e+00 -7.556614875793457031e-01 6.587221622467041016e+00 1.904101562500000000e+01
1.159738636016845703e+01 7.351415634155273438e+00 1.595567226409912109e+01 7.351415634155273438e+00 4.553902149200439453e+00 1.930092048645019531e+01 1.595567226409912109e+01 1.930092048645019531e+01 1.737588500976562500e+01
3.019413757324218750e+01 6.349564552307128906e+00 1.418089389801025391e+01 6.349564552307128906e+00 -1.436385631561279297e+01 8.480340957641601562e+00 1.418089389801025391e+01 8.480340957641601562e+00 -1.085025215148925781e+01
5.935079574584960938e+00 -3.022554636001586914e+00 -8.342428207397460938e+00 -3.022554636001586914e+00 1.553184890747070312e+01 -1.093793582916259766e+01 -8.342428207397460938e+00 -1.093793582916259766e+01 1.697688698768615723e+00
2.316767883300781250e+01 -7.358844280242919922e+00 -2.991303205490112305e+00 -7.358844280242919922e+00 -3.914406776428222656e+00 -1.338053035736083984e+01 -2.991303205490112305e+00 -1.338053035736083984e+01 -6.322352409362792969e+00
7.384219169616699219e+00 -1.069175148010253906e+01 -1.225220394134521484e+01 -1.069175148010253906e+01 -9.151953697204589844e+00 -3.248345255851745605e-01 -1.225220394134521484e+01 -3.248345255851745605e-01 1.632775878906250000e+01
1.691039848327636719e+01 -2.528165578842163086e+00 -1.057891845703125000e+01 -2.528165578842163086e+00 1.014073657989501953e+01 1.224392318725585938e+01 -1.057891845703125000e+01 1.224392318725585938e+01 -2.324794054031372070e+00
3.119977569580078125e+01 1.028486251831054688e+01 -1.653388619422912598e+00 1.028486251831054688e+01 1.934576416015625000e+01 1.665581893920898438e+01 -1.653388619422912598e+00 1.665581893920898438e+01 1.360687851905822754e+00
1.244129562377929688e+01 1.120288848876953125e+01 -1.073137283325195312e+01 1.120288848876953125e+01 2.361588859558105469e+01 4.222067832946777344e+00 -1.073137283325195312e+01 4.222067832946777344e+00 -1.364943981170654297e+01
2.604143524169921875e+01 8.499499320983886719e+00 2.739466905593872070e+00 8.499499320983886719e+00 3.039466094970703125e+01 1.342068386077880859e+01 2.739466905593872070e+00 1.342068386077880859e+01 1.290831661224365234e+01
2.511936187744140625e+01 -5.762001037597656250e+00 -1.086277008056640625e+00 -5.762001037597656250e+00 1.791388893127441406e+01 -7.309563636779785156e+00 -1.086277008056640625e+00 -7.309563636779785156e+00 1.290993571281433105e+00
2.200036430358886719e+01 -4.430757999420166016e+00 6.981161236763000488e-01 -4.430757999420166016e+00 3.492459487915039062e+01 1.321676063537597656e+01 6.981161236763000488e-01 1.321676063537597656e+01 9.484708786010742188e+00
-1.744544601440429688e+01 9.631416320800781250e+00 2.550729513168334961e+00 9.631416320800781250e+00 -8.601088523864746094e+00 1.107287883758544922e+00 2.550729513168334961e+00 1.107287883758544922e+00 2.032475090026855469e+01
4.564063549041748047e+00 1.407736206054687500e+01 -3.120964169502258301e-01 1.407736206054687500e+01 3.329711914062500000e+01 6.561262130737304688e+00 -3.120964169502258301e-01 6.561262130737304688e+00 6.710463047027587891e+00
1.635768508911132812e+01 4.200081348419189453e+00 -2.913465261459350586e+00 4.200081348419189453e+00 2.562222290039062500e+01 8.788836479187011719e+00 -2.913465261459350586e+00 8.788836479187011719e+00 -9.266753196716308594e+00
2.735441207885742188e+01 -4.376599311828613281e+00 -2.400372743606567383e+00 -4.376599311828613281e+00 1.299555015563964844e+01 3.604387521743774414e+00 -2.400372743606567383e+00 3.604387521743774414e+00 1.367862224578857422e+01
4.690494060516357422e+00 -1.032933425903320312e+01 4.961229801177978516e+00 -1.032933425903320312e+01 2.961130714416503906e+01 -3.862794637680053711e+00 4.961229801177978516e+00 -3.862794637680053711e+00 1.881365013122558594e+01
7.019524574279785156e+00 1.165172863006591797e+01 7.107870101928710938e+00 1.165172863006591797e+01 2.938390350341796875e+01 -2.423855972290039062e+01 7.107870101928710938e+00 -2.423855972290039062e+01 1.103507041931152344e+01
1.528292751312255859e+01 -4.105539321899414062e+00 2.140966224670410156e+01 -4.105539321899414062e+00 6.770959854125976562e+00 -4.293684005737304688e+00 2.140966224670410156e+01 -4.293684005737304688e+00 1.751030445098876953e+00
-8.035506248474121094e+00 1.271729755401611328e+01 -1.504739284515380859e+01 1.271729755401611328e+01 2.799757385253906250e+01 -1.593265724182128906e+01 -1.504739284515380859e+01 -1.593265724182128906e+01 -1.612428665161132812e+01
7.234167098999023438e+00 -6.314097881317138672e+00 -2.271346807479858398e+00 -6.314097881317138672e+00 -1.129596114158630371e+00 -2.509252727031707764e-01 -2.271346807479858398e+00 -2.509252727031707764e-01 8.546091079711914062e+00
-1.047432804107666016e+01 5.042368412017822266e+00 -3.337902069091796875e+00 5.042368412017822266e+00 -8.841442108154296875e+00 -5.989561557769775391e+00 -3.337902069091796875e+00 -5.989561557769775391e+00 -1.164940476417541504e+00
9.547359466552734375e+00 3.295196592807769775e-01 -2.317363023757934570e+00 3.295196592807769775e-01 1.514384937286376953e+01 9.320799827575683594e+00 -2.317363023757934570e+00 9.320799827575683594e+00 1.420429801940917969e+01
-1.352302932739257812e+01 8.151640892028808594e+00 -5.340202331542968750e+00 8.151640892028808594e+00 2.055226898193359375e+01 8.109641075134277344e+00 -5.340202331542968750e+00 8.109641075134277344e+00 1.165649890899658203e+01
-2.222477197647094727e+00 1.950154113769531250e+01 -1.089512634277343750e+01 1.950154113769531250e+01 2.104261589050292969e+01 4.836124420166015625e+00 -1.089512634277343750e+01 4.836124420166015625e+00 -1.057486772537231445e+00
2.527531623840332031e+00 6.275961875915527344e+00 -2.267622500658035278e-01 6.275961875915527344e+00 2.881709289550781250e+01 5.248237848281860352e-01 -2.267622500658035278e-01 5.248237848281860352e-01 2.152585601806640625e+01
1.979927062988281250e+01 1.181250476837158203e+01 1.884048223495483398e+00 1.181250476837158203e+01 -3.634580075740814209e-01 -5.925227165222167969e+00 1.884048223495483398e+00 -5.925227165222167969e+00 9.623232841491699219e+00
7.587330341339111328e+00 -6.141619205474853516e+00 -4.280770421028137207e-01 -6.141619205474853516e+00 1.254892730712890625e+01 -4.766250133514404297e+00 -4.280770421028137207e-01 -4.766250133514404297e+00 1.063545703887939453e+01
1.876238346099853516e+00 1.471688508987426758e+00 -6.206299304962158203e+00 1.471688508987426758e+00 9.425766944885253906e+00 1.595042824745178223e+00 -6.206299304962158203e+00 1.595042824745178223e+00 1.603483009338378906e+01
2.007527351379394531e-01 -7.301774621009826660e-01 -1.907670259475708008e+00 -7.301774621009826660e-01 8.971693992614746094e+00 -7.994563102722167969e+00 -1.907670259475708008e+00 -7.994563102722167969e+00 2.492089718580245972e-01
1.461386871337890625e+01 -1.089121913909912109e+01 8.422089576721191406e+00 -1.089121913909912109e+01 2.931609535217285156e+01 -7.022893905639648438e+00 8.422089576721191406e+00 -7.022893905639648438e+00 2.756997680664062500e+01
4.599635124206542969e+00 -4.323974132537841797e+00 4.321059703826904297e+00 -4.323974132537841797e+00 -6.528537750244140625e+00 5.932805538177490234e+00 4.321059703826904297e+00 5.932805538177490234e+00 1.744078063964843750e+01
2.406670951843261719e+01 -4.215219974517822266e+00 -5.282457828521728516e+00 -4.215219974517822266e+00 2.183374977111816406e+01 -3.651569128036499023e+00 -5.282457828521728516e+00 -3.651569128036499023e+00 7.360055446624755859e-01
1.253830432891845703e+01 6.110155105590820312e+00 -4.799289703369140625e+00 6.110155105590820312e+00 4.170674800872802734e+00 -6.305443763732910156e+00 -4.799289703369140625e+00 -6.305443763732910156e+00 2.064867734909057617e+00
9.392301559448242188e+00 -7.212957859039306641e+00 -5.609441757202148438e+00 -7.212957859039306641e+00 1.388609123229980469e+01 1.397400975227355957e+00 -5.609441757202148438e+00 1.397400975227355957e+00 -5.140996456146240234e+00
1.206268978118896484e+01 5.357216358184814453e+00 1.238499927520751953e+01 5.357216358184814453e+00 2.664000320434570312e+01 7.755131721496582031e-01 1.238499927520751953e+01 7.755131721496582031e-01 1.020981025695800781e+01
8.554656028747558594e+00 4.637752056121826172e+00 6.738745212554931641e+00 4.637752056121826172e+00 -3.953879833221435547e+00 -3.425144672393798828e+00 6.738745212554931641e+00 -3.425144672393798828e+00 4.767125606536865234e+00
9.560823440551757812e+00 4.283453464508056641e+00 -1.979932069778442383e+00 4.283453464508056641e+00 7.177838325500488281e+00 -1.456663036346435547e+01 -1.979932069778442383e+00 -1.456663036346435547e+01 1.634448623657226562e+01
2.499326896667480469e+01 -3.178119897842407227e+00 1.909069061279296875e+01 -3.178119897842407227e+00 7.135324954986572266e+00 -1.685383081436157227e+00 1.909069061279296875e+01 -1.685383081436157227e+00 4.525954425334930420e-01
-2.167503166198730469e+01 1.891144943237304688e+01 -2.905973911285400391e+00 1.891144943237304688e+01 9.571281433105468750e+00 -6.084696650505065918e-01 -2.905973911285400391e+00 -6.084696650505065918e-01 1.655614471435546875e+01
4.576524198055267334e-01 6.901703476905822754e-01 -1.423788738250732422e+01 6.901703476905822754e-01 3.965897560119628906e+00 3.830641508102416992e+00 -1.423788738250732422e+01 3.830641508102416992e+00 5.881028652191162109e+00
2.193041419982910156e+01 1.521617603302001953e+01 6.094254970550537109e+00 1.521617603302001953e+01 6.509423732757568359e+00 8.529761314392089844e+00 6.094254970550537109e+00 8.529761314392089844e+00 6.576771259307861328e+00
3.506494903564453125e+01 9.008348464965820312e+00 3.413177728652954102e+00 9.008348464965820312e+00 1.675151252746582031e+01 1.001689910888671875e+01 3.413177728652954102e+00 1.001689910888671875e+01 1.553702068328857422e+01
1.171161270141601562e+01 6.969239711761474609e+00 -2.304133653640747070e+00 6.969239711761474609e+00 8.794161796569824219e+00 -3.493321657180786133e+00 -2.304133653640747070e+00 -3.493321657180786133e+00 -2.910593032836914062e+00
2.357483673095703125e+01 -2.961817741394042969e+00 -8.555471420288085938e+00 -2.961817741394042969e+00 2.181530570983886719e+01 -5.756672859191894531e+00 -8.555471420288085938e+00 -5.756672859191894531e+00 2.563953590393066406e+01
4.211912631988525391e+00 1.931125068664550781e+01 4.372150897979736328e+00 1.931125068664550781e+01 1.619246673583984375e+01 3.006633996963500977e+00 4.372150897979736328e+00 3.006633996963500977e+00 -8.507691383361816406e+00
1.293503379821777344e+01 1.209812450408935547e+01 1.664739990234375000e+01 1.209812450408935547e+01 1.624380683898925781e+01 -7.523065567016601562e+00 1.664739990234375000e+01 -7.523065567016601562e+00 2.246750450134277344e+01
9.460872650146484375e+00 -1.920307636260986328e+00 9.188340187072753906e+00 -1.920307636260986328e+00 5.845145225524902344e+00 2.079278945922851562e+00 9.188340187072753906e+00 2.079278945922851562e+00 3.614685058593750000e+01
1.980364418029785156e+01 1.758230781555175781e+01 -9.272828102111816406e+00 1.758230781555175781e+01 1.805379867553710938e+01 2.397815465927124023e+00 -9.272828102111816406e+00 2.397815465927124023e+00 3.383902311325073242e+00
-3.338441133499145508e+00 2.398997068405151367e+00 -4.247682571411132812e+00 2.398997068405151367e+00 -2.968811094760894775e-01 1.695162010192871094e+01 -4.247682571411132812e+00 1.695162010192871094e+01 2.362549781799316406e+01
6.271793365478515625e+00 6.118142127990722656e+00 -9.815726280212402344e+00 6.118142127990722656e+00 2.067407035827636719e+01 4.677855014801025391e+00 -9.815726280212402344e+00 4.677855014801025391e+00 2.853139114379882812e+01
-1.234163188934326172e+01 2.878301811218261719e+01 -1.226215934753417969e+01 2.878301811218261719e+01 2.461422538757324219e+01 -5.577538013458251953e+00 -1.226215934753417969e+01 -5.577538013458251953e+00 -2.170057773590087891e+00
2.375008392333984375e+01 2.622149276733398438e+01 -1.418270468711853027e-01 2.622149276733398438e+01 3.582900619506835938e+01 -2.042001962661743164e+00 -1.418270468711853027e-01 -2.042001962661743164e+00 3.181993865966796875e+01
-7.620911598205566406e+00 7.673441410064697266e+00 4.387996673583984375e+00 7.673441410064697266e+00 1.868170499801635742e-01 7.002127170562744141e+00 4.387996673583984375e+00 7.002127170562744141e+00 4.902345180511474609e+00
1.533276844024658203e+01 2.279531955718994141e+00 -1.664760971069335938e+01 2.279531955718994141e+00 3.623868942260742188e+01 -8.078550338745117188e+00 -1.664760971069335938e+01 -8.078550338745117188e+00 8.326352119445800781e+00
3.803894519805908203e+00 7.481839656829833984e+00 4.697280406951904297e+00 7.481839656829833984e+00 1.311809921264648438e+01 3.862966537475585938e+00 4.697280406951904297e+00 3.862966537475585938e+00 1.363906955718994141e+01
4.696051120758056641e+00 7.638977766036987305e-01 -6.653920173645019531e+00 7.638977766036987305e-01 2.674000549316406250e+01 -6.840310573577880859e+00 -6.653920173645019531e+00 -6.840310573577880859e+00 1.992152023315429688e+01
1.962366294860839844e+01 -5.382850646972656250e+00 -2.591992616653442383e+00 -5.382850646972656250e+00 1.490561771392822266e+01 -1.511490535736083984e+01 -2.591992616653442383e+00 -1.511490535736083984e+01 1.247087669372558594e+01
-2.541337728500366211e+00 -7.502748489379882812e+00 -1.532236480712890625e+01 -7.502748489379882812e+00 1.328826713562011719e+01 -5.536629676818847656e+00 -1.532236480712890625e+01 -5.536629676818847656e+00 3.963096141815185547e+00
1.315688705444335938e+01 -4.288962364196777344e+00 -7.464017391204833984e+00 -4.288962364196777344e+00 2.025430679321289062e+01 9.139574050903320312e+00 -7.464017391204833984e+00 9.139574050903320312e+00 2.691270065307617188e+01
3.251357650756835938e+01 -9.478092938661575317e-02 7.761578559875488281e-01 -9.478092938661575317e-02 -6.793386936187744141e-01 1.419531440734863281e+01 7.761578559875488281e-01 1.419531440734863281e+01 1.502110576629638672e+01
5.349371910095214844e+00 -3.691849231719970703e+00 -5.668867111206054688e+00 -3.691849231719970703e+00 -1.057595729827880859e+01 1.381393241882324219e+01 -5.668867111206054688e+00 1.381393241882324219e+01 1.032882308959960938e+01
6.189316749572753906e+00 -3.622391700744628906e+00 -1.008676409721374512e+00 -3.622391700744628906e+00 -6.273934364318847656e+00 -7.413595318794250488e-01 -1.008676409721374512e+00 -7.413595318794250488e-01 5.012833118438720703e+00
1.385307598114013672e+01 2.012513923645019531e+01 -4.355174541473388672e+00 2.012513923645019531e+01 2.330410385131835938e+01 7.437281131744384766e+00 -4.355174541473388672e+00 7.437281131744384766e+00 6.998103618621826172e+00
-7.525948524475097656e+00 9.346930503845214844e+00 2.337397336959838867e+00 9.346930503845214844e+00 1.782571196556091309e+00 1.107931137084960938e+01 2.337397336959838867e+00 1.107931137084960938e+01 1.362984180450439453e+01
-1.165516662597656250e+01 5.835753917694091797e+00 -4.671478271484375000e+00 5.835753917694091797e+00 3.358909606933593750e+00 -2.815662145614624023e+00 -4.671478271484375000e+00 -2.815662145614624023e+00 1.713697624206542969e+01
3.647874355316162109e+00 2.671875000000000000e+00 -1.933602905273437500e+01 2.671875000000000000e+00 8.139991760253906250e+00 1.330575275421142578e+01 -1.933602905273437500e+01 1.330575275421142578e+01 8.267954826354980469e+00
2.288696098327636719e+01 -8.139961242675781250e+00 -3.438227891921997070e+00 -8.139961242675781250e+00 6.008758544921875000e+00 2.581551170349121094e+01 -3.438227891921997070e+00 2.581551170349121094e+01 1.785037612915039062e+01
2.137763977050781250e+01 -4.538768291473388672e+00 1.424108505249023438e+00 -4.538768291473388672e+00 2.087805366516113281e+01 -1.198246479034423828e+01 1.424108505249023438e+00 -1.198246479034423828e+01 3.386358642578125000e+01
-2.913025379180908203e+00 4.593181610107421875e+00 4.414773464202880859e+00 4.593181610107421875e+00 1.250483632087707520e+00 -1.112378501892089844e+01 4.414773464202880859e+00 -1.112378501892089844e+01 6.029432415962219238e-01
-4.056525230407714844e-02 7.750404357910156250e+00 -1.074709892272949219e+01 7.750404357910156250e+00 -3.071249961853027344e+01 1.126961898803710938e+01 -1.074709892272949219e+01 1.126961898803710938e+01 9.444963455200195312e+00
-2.382958030700683594e+01 -4.047192096710205078e+00 1.568441867828369141e+01 -4.047192096710205078e+00 1.951929092407226562e+00 1.985322713851928711e+00 1.568441867828369141e+01 1.985322713851928711e+00 7.120570659637451172e+00
2.140370845794677734e+00 6.140367984771728516e-01 1.440084648132324219e+01 6.140367984771728516e-01 2.509123086929321289e+00 3.700119256973266602e+00 1.440084648132324219e+01 3.700119256973266602e+00 6.112538337707519531e+00
2.022693634033203125e+01 1.156094670295715332e+00 -7.755003452301025391e+00 1.156094670295715332e+00 2.412487268447875977e+00 2.208274841308593750e+01 -7.755003452301025391e+00 2.208274841308593750e+01 1.606246757507324219e+01
9.497379302978515625e+00 -3.139771938323974609e+00 9.437499046325683594e+00 -3.139771938323974609e+00 -1.201471614837646484e+01 -3.536055088043212891e+00 9.437499046325683594e+00 -3.536055088043212891e+00 5.991289615631103516e+00
-1.236734315752983093e-01 -6.732007503509521484e+00 6.224088668823242188e+00 -6.732007503509521484e+00 1.049115943908691406e+01 3.645085334777832031e+00 6.224088668823242188e+00 3.645085334777832031e+00 1.634199523925781250e+01
2.223352241516113281e+01 1.106446361541748047e+01 -5.298339366912841797e+00 1.106446361541748047e+01 1.019418716430664062e+01 6.155139446258544922e+00 -5.298339366912841797e+00 6.155139446258544922e+00 7.076738834381103516e+00
6.457846164703369141e+00 2.568589448928833008e+00 1.451437187194824219e+01 2.568589448928833008e+00 3.415068149566650391e+00 -1.177532768249511719e+01 1.451437187194824219e+01 -1.177532768249511719e+01 1.454051113128662109e+01
1.675422430038452148e+00 8.668466567993164062e+00 1.652196121215820312e+01 8.668466567993164062e+00 -1.117114257812500000e+01 -5.560189247131347656e+00 1.652196121215820312e+01 -5.560189247131347656e+00 -1.201689815521240234e+01
-5.576661825180053711e-01 1.591812419891357422e+01 8.686312675476074219e+00 1.591812419891357422e+01 1.740230178833007812e+01 -5.819624900817871094e+00 8.686312675476074219e+00 -5.819624900817871094e+00 -1.133048534393310547e+00
1.026850509643554688e+01 -1.033314514160156250e+01 1.171515750885009766e+01 -1.033314514160156250e+01 2.039205169677734375e+01 -8.867593765258789062e+00 1.171515750885009766e+01 -8.867593765258789062e+00 3.105866193771362305e+00
1.456629657745361328e+01 4.066092967987060547e+00 1.044402503967285156e+01 4.066092967987060547e+00 3.998379135131835938e+01 -1.225236535072326660e+00 1.044402503967285156e+01 -1.225236535072326660e+00 5.084321975708007812e+00
5.500808715820312500e+00 8.084663391113281250e+00 -3.710848331451416016e+00 8.084663391113281250e+00 7.383372306823730469e+00 5.278088569641113281e+00 -3.710848331451416016e+00 5.278088569641113281e+00 -1.560691261291503906e+01
3.584963607788085938e+01 5.020539164543151855e-01 -5.078829765319824219e+00 5.020539164543151855e-01 3.666879653930664062e+00 -1.304886150360107422e+01 -5.078829765319824219e+00 -1.304886150360107422e+01 2.788803672790527344e+01
-8.479740619659423828e-01 4.969169616699218750e+00 -5.158497810363769531e+00 4.969169616699218750e+00 -2.784433364868164062e+01 -7.733757019042968750e+00 -5.158497810363769531e+00 -7.733757019042968750e+00 1.131596374511718750e+01
5.203614425659179688e+01 -9.926730394363403320e-01 1.145004463195800781e+01 -9.926730394363403320e-01 2.498173522949218750e+01 2.936368560791015625e+01 1.145004463195800781e+01 2.936368560791015625e+01 7.181848049163818359e+00