1.936800003051757812e+01 0.000000000000000000e+00 0.000000000000000000e+00 -1.049999967217445374e-01 1.884199905395507812e+01 0.000000000000000000e+00 5.540000200271606445e-01 5.700000002980232239e-02 1.901000022888183594e+01
1.976799964904785156e+01 0.000000000000000000e+00 0.000000000000000000e+00 3.919999897480010986e-01 2.025200080871582031e+01 0.000000000000000000e+00 -2.450000047683715820e-01 3.999999910593032837e-02 1.950799942016601562e+01
1.889699935913085938e+01 0.000000000000000000e+00 0.000000000000000000e+00 1.949999928474426270e-01 1.940500068664550781e+01 0.000000000000000000e+00 2.919999957084655762e-01 1.630000025033950806e-01 1.978599929809570312e+01
2.016699981689453125e+01 0.000000000000000000e+00 0.000000000000000000e+00 5.680000185966491699e-01 1.959900093078613281e+01 0.000000000000000000e+00 2.579999864101409912e-01 -1.059999987483024597e-01 1.965800094604492188e+01
1.906800079345703125e+01 0.000000000000000000e+00 0.000000000000000000e+00 4.250000119209289551e-01 1.994199943542480469e+01 0.000000000000000000e+00 3.770000040531158447e-01 1.300000026822090149e-02 1.980500030517578125e+01
1.979199981689453125e+01 0.000000000000000000e+00 0.000000000000000000e+00 -2.399999946355819702e-01 1.904199981689453125e+01 0.000000000000000000e+00 4.320000112056732178e-01 -3.330000042915344238e-01 1.945199966430664062e+01
1.867300033569335938e+01 0.000000000000000000e+00 0.000000000000000000e+00 1.930000036954879761e-01 1.917499923706054688e+01 0.000000000000000000e+00 2.890000045299530029e-01 1.609999984502792358e-01 1.955200004577636719e+01
1.996599960327148438e+01 0.000000000000000000e+00 0.000000000000000000e+00 0.000000000000000000e+00 1.996599960327148438e+01 0.000000000000000000e+00 0.000000000000000000e+00 0.000000000000000000e+00 1.996599960327148438e+01
1.957399940490722656e+01 0.000000000000000000e+00 0.000000000000000000e+00 -3.959999978542327881e-01 2.021500015258789062e+01 0.000000000000000000e+00 -5.400000140070915222e-02 -8.900000154972076416e-02 1.981100082397460938e+01
1.994499969482421875e+01 0.000000000000000000e+00 0.000000000000000000e+00 1.620000004768371582e-01 1.935099983215332031e+01 0.000000000000000000e+00 1.159999966621398926e-01 2.389999926090240479e-01 1.914399909973144531e+01
1.948900032043457031e+01 0.000000000000000000e+00 0.000000000000000000e+00 0.000000000000000000e+00 1.948900032043457031e+01 0.000000000000000000e+00 0.000000000000000000e+00 0.000000000000000000e+00 1.948900032043457031e+01
1.951700019836425781e+01 0.000000000000000000e+00 0.000000000000000000e+00 5.490000247955322266e-01 1.896699905395507812e+01 0.000000000000000000e+00 2.489999979734420776e-01 -1.030000001192092896e-01 1.902400016784667969e+01
1.915600013732910156e+01 0.000000000000000000e+00 0.000000000000000000e+00 -3.880000114440917969e-01 1.978300094604492188e+01 0.000000000000000000e+00 -5.299999937415122986e-02 -8.699999749660491943e-02 1.938800048828125000e+01
1.876499938964843750e+01 0.000000000000000000e+00 0.000000000000000000e+00 4.189999997615814209e-01 1.962500000000000000e+01 0.000000000000000000e+00 3.709999918937683105e-01 1.300000026822090149e-02 1.949099922180175781e+01
1.959799957275390625e+01 0.000000000000000000e+00 0.000000000000000000e+00 2.029999941587448120e-01 2.012400054931640625e+01 0.000000000000000000e+00 3.030000030994415283e-01 1.689999997615814209e-01 2.052000045776367188e+01
1.909199905395507812e+01 0.000000000000000000e+00 0.000000000000000000e+00 -1.990000009536743164e-01 1.926700019836425781e+01 0.000000000000000000e+00 -3.980000019073486328e-01 -3.869999945163726807e-01 1.901499938964843750e+01
1.876399993896484375e+01 0.000000000000000000e+00 0.000000000000000000e+00 1.940000057220458984e-01 1.926799964904785156e+01 0.000000000000000000e+00 2.899999916553497314e-01 1.620000004768371582e-01 1.964699935913085938e+01
1.901799964904785156e+01 0.000000000000000000e+00 0.000000000000000000e+00 0.000000000000000000e+00 1.901799964904785156e+01 0.000000000000000000e+00 0.000000000000000000e+00 0.000000000000000000e+00 1.901799964904785156e+01
1.877599906921386719e+01 0.000000000000000000e+00 0.000000000000000000e+00 3.720000088214874268e-01 1.923500061035156250e+01 0.000000000000000000e+00 -2.329999953508377075e-01 3.799999877810478210e-02 1.852799987792968750e+01
1.953000068664550781e+01 0.000000000000000000e+00 0.000000000000000000e+00 -2.680000066757202148e-01 1.888800048828125000e+01 0.000000000000000000e+00 1.270000040531158447e-01 3.589999973773956299e-01 1.860199928283691406e+01
1.974600028991699219e+01 0.000000000000000000e+00 0.000000000000000000e+00 3.919999897480010986e-01 2.022900009155273438e+01 0.000000000000000000e+00 -2.450000047683715820e-01 3.999999910593032837e-02 1.948600006103515625e+01
2.018499946594238281e+01 0.000000000000000000e+00 0.000000000000000000e+00 -2.770000100135803223e-01 1.952099990844726562e+01 0.000000000000000000e+00 1.319999992847442627e-01 3.709999918937683105e-01 1.922500038146972656e+01
1.936700057983398438e+01 0.000000000000000000e+00 0.000000000000000000e+00 3.840000033378601074e-01 1.984099960327148438e+01 0.000000000000000000e+00 -2.399999946355819702e-01 3.900000080466270447e-02 1.911199951171875000e+01
1.994400024414062500e+01 0.000000000000000000e+00 0.000000000000000000e+00 1.620000004768371582e-01 1.935099983215332031e+01 0.000000000000000000e+00 1.159999966621398926e-01 2.389999926090240479e-01 1.914399909973144531e+01
1.956800079345703125e+01 0.000000000000000000e+00 0.000000000000000000e+00 3.880000114440917969e-01 2.004599952697753906e+01 0.000000000000000000e+00 -2.430000007152557373e-01 3.999999910593032837e-02 1.930999946594238281e+01
1.910400009155273438e+01 0.000000000000000000e+00 0.000000000000000000e+00 0.000000000000000000e+00 1.910400009155273438e+01 0.000000000000000000e+00 0.000000000000000000e+00 0.000000000000000000e+00 1.910400009155273438e+01
1.882699966430664062e+01 0.000000000000000000e+00 0.000000000000000000e+00 1.949999928474426270e-01 1.933300018310546875e+01 0.000000000000000000e+00 2.910000085830688477e-01 1.630000025033950806e-01 1.971299934387207031e+01
1.937199974060058594e+01 0.000000000000000000e+00 0.000000000000000000e+00 -2.649999856948852539e-01 1.873500061035156250e+01 0.000000000000000000e+00 1.260000020265579224e-01 3.560000061988830566e-01 1.845199966430664062e+01
1.928199958801269531e+01 0.000000000000000000e+00 0.000000000000000000e+00 -2.339999973773956299e-01 1.855100059509277344e+01 0.000000000000000000e+00 4.210000038146972656e-01 -3.249999880790710449e-01 1.895100021362304688e+01
1.931299972534179688e+01 0.000000000000000000e+00 0.000000000000000000e+00 -2.010000050067901611e-01 1.949099922180175781e+01 0.000000000000000000e+00 -4.029999971389770508e-01 -3.919999897480010986e-01 1.923600006103515625e+01
1.937199974060058594e+01 0.000000000000000000e+00 0.000000000000000000e+00 5.450000166893005371e-01 1.882699966430664062e+01 0.000000000000000000e+00 2.479999959468841553e-01 -1.019999980926513672e-01 1.888299942016601562e+01
1.906999969482421875e+01 0.000000000000000000e+00 0.000000000000000000e+00 4.250000119209289551e-01 1.994400024414062500e+01 0.000000000000000000e+00 3.779999911785125732e-01 1.300000026822090149e-02 1.980800056457519531e+01
1.962599945068359375e+01 0.000000000000000000e+00 0.000000000000000000e+00 5.519999861717224121e-01 1.907299995422363281e+01 0.000000000000000000e+00 2.509999871253967285e-01 -1.030000001192092896e-01 1.912999916076660156e+01
1.951499938964843750e+01 0.000000000000000000e+00 0.000000000000000000e+00 3.869999945163726807e-01 1.999200057983398438e+01 0.000000000000000000e+00 -2.419999986886978149e-01 3.999999910593032837e-02 1.925799942016601562e+01
1.971199989318847656e+01 0.000000000000000000e+00 0.000000000000000000e+00 -1.070000007748603821e-01 1.917700004577636719e+01 0.000000000000000000e+00 5.640000104904174805e-01 5.799999833106994629e-02 1.934799957275390625e+01
1.979700088500976562e+01 0.000000000000000000e+00 0.000000000000000000e+00 5.569999814033508301e-01 1.923900032043457031e+01 0.000000000000000000e+00 2.529999911785125732e-01 -1.040000021457672119e-01 1.929700088500976562e+01
1.933399963378906250e+01 0.000000000000000000e+00 0.000000000000000000e+00 -1.049999967217445374e-01 1.880900001525878906e+01 0.000000000000000000e+00 5.529999732971191406e-01 5.700000002980232239e-02 1.897699928283691406e+01
1.973100090026855469e+01 0.000000000000000000e+00 0.000000000000000000e+00 5.550000071525573730e-01 1.917600059509277344e+01 0.000000000000000000e+00 2.520000040531158447e-01 -1.040000021457672119e-01 1.923299980163574219e+01
1.983900070190429688e+01 0.000000000000000000e+00 0.000000000000000000e+00 1.609999984502792358e-01 1.924900054931640625e+01 0.000000000000000000e+00 1.159999966621398926e-01 2.380000054836273193e-01 1.904299926757812500e+01
1.947800064086914062e+01 0.000000000000000000e+00 0.000000000000000000e+00 1.580000072717666626e-01 1.889800071716308594e+01 0.000000000000000000e+00 1.140000000596046448e-01 2.329999953508377075e-01 1.869700050354003906e+01
1.936499977111816406e+01 0.000000000000000000e+00 0.000000000000000000e+00 -2.349999994039535522e-01 1.863100051879882812e+01 0.000000000000000000e+00 4.230000078678131104e-01 -3.260000050067901611e-01 1.903300094604492188e+01
2.001899909973144531e+01 0.000000000000000000e+00 0.000000000000000000e+00 -2.430000007152557373e-01 1.926000022888183594e+01 0.000000000000000000e+00 4.370000064373016357e-01 -3.370000123977661133e-01 1.967499923706054688e+01
2.058900070190429688e+01 0.000000000000000000e+00 0.000000000000000000e+00 -2.820000052452087402e-01 1.991200065612792969e+01 0.000000000000000000e+00 1.340000033378601074e-01 3.790000081062316895e-01 1.961100006103515625e+01
1.911599922180175781e+01 0.000000000000000000e+00 0.000000000000000000e+00 4.259999990463256836e-01 1.999200057983398438e+01 0.000000000000000000e+00 3.779999911785125732e-01 1.300000026822090149e-02 1.985600090026855469e+01
1.868799972534179688e+01 0.000000000000000000e+00 0.000000000000000000e+00 -3.779999911785125732e-01 1.929999923706054688e+01 0.000000000000000000e+00 -5.200000107288360596e-02 -8.500000089406967163e-02 1.891399955749511719e+01
1.950099945068359375e+01 0.000000000000000000e+00 0.000000000000000000e+00 3.869999945163726807e-01 1.997800064086914062e+01 0.000000000000000000e+00 -2.419999986886978149e-01 3.999999910593032837e-02 1.924500083923339844e+01
1.949600028991699219e+01 0.000000000000000000e+00 0.000000000000000000e+00 -2.029999941587448120e-01 1.967499923706054688e+01 0.000000000000000000e+00 -4.070000052452087402e-01 -3.950000107288360596e-01 1.941699981689453125e+01
2.037700080871582031e+01 0.000000000000000000e+00 0.000000000000000000e+00 -2.790000140666961670e-01 1.970700073242187500e+01 0.000000000000000000e+00 1.330000013113021851e-01 3.750000000000000000e-01 1.940900039672851562e+01
1.937899971008300781e+01 0.000000000000000000e+00 0.000000000000000000e+00 -2.020000070333480835e-01 1.955699920654296875e+01 0.000000000000000000e+00 -4.040000140666961670e-01 -3.930000066757202148e-01 1.930100059509277344e+01
1.950900077819824219e+01 0.000000000000000000e+00 0.000000000000000000e+00 1.589999943971633911e-01 1.892799949645996094e+01 0.000000000000000000e+00 1.140000000596046448e-01 2.339999973773956299e-01 1.872599983215332031e+01
2.058600044250488281e+01 0.000000000000000000e+00 0.000000000000000000e+00 1.669999957084655762e-01 1.997299957275390625e+01 0.000000000000000000e+00 1.199999973177909851e-01 2.469999939203262329e-01 1.976000022888183594e+01
1.992600059509277344e+01 0.000000000000000000e+00 0.000000000000000000e+00 5.609999895095825195e-01 1.936499977111816406e+01 0.000000000000000000e+00 2.549999952316284180e-01 -1.049999967217445374e-01 1.942300033569335938e+01
1.896699905395507812e+01 0.000000000000000000e+00 0.000000000000000000e+00 1.959999948740005493e-01 1.947599983215332031e+01 0.000000000000000000e+00 2.930000126361846924e-01 1.640000045299530029e-01 1.985899925231933594e+01
1.913400077819824219e+01 0.000000000000000000e+00 0.000000000000000000e+00 -1.990000009536743164e-01 1.930999946594238281e+01 0.000000000000000000e+00 -3.989999890327453613e-01 -3.880000114440917969e-01 1.905699920654296875e+01
1.942300033569335938e+01 0.000000000000000000e+00 0.000000000000000000e+00 3.849999904632568359e-01 1.989800071716308594e+01 0.000000000000000000e+00 -2.409999966621398926e-01 3.999999910593032837e-02 1.916699981689453125e+01
1.863999938964843750e+01 0.000000000000000000e+00 0.000000000000000000e+00 -3.770000040531158447e-01 1.925000000000000000e+01 0.000000000000000000e+00 -5.200000107288360596e-02 -8.500000089406967163e-02 1.886499977111816406e+01
1.990299987792968750e+01 0.000000000000000000e+00 0.000000000000000000e+00 -1.080000028014183044e-01 1.936300086975097656e+01 0.000000000000000000e+00 5.699999928474426270e-01 5.900000035762786865e-02 1.953499984741210938e+01
1.888500022888183594e+01 0.000000000000000000e+00 0.000000000000000000e+00 3.750000000000000000e-01 1.934700012207031250e+01 0.000000000000000000e+00 -2.339999973773956299e-01 3.799999877810478210e-02 1.863599967956542969e+01
1.894700050354003906e+01 0.000000000000000000e+00 0.000000000000000000e+00 -3.840000033378601074e-01 1.956699943542480469e+01 0.000000000000000000e+00 -5.200000107288360596e-02 -8.600000292062759399e-02 1.917600059509277344e+01
1.964200019836425781e+01 0.000000000000000000e+00 0.000000000000000000e+00 5.529999732971191406e-01 1.908900070190429688e+01 0.000000000000000000e+00 2.509999871253967285e-01 -1.030000001192092896e-01 1.914599990844726562e+01
1.997100067138671875e+01 0.000000000000000000e+00 0.000000000000000000e+00 -1.080000028014183044e-01 1.943000030517578125e+01 0.000000000000000000e+00 5.720000267028808594e-01 5.900000035762786865e-02 1.960300064086914062e+01
1.976099967956542969e+01 0.000000000000000000e+00 0.000000000000000000e+00 5.559999942779541016e-01 1.920400047302246094e+01 0.000000000000000000e+00 2.529999911785125732e-01 -1.040000021457672119e-01 1.926199913024902344e+01
1.996999931335449219e+01 0.000000000000000000e+00 0.000000000000000000e+00 -1.080000028014183044e-01 1.942900085449218750e+01 0.000000000000000000e+00 5.720000267028808594e-01 5.900000035762786865e-02 1.960199928283691406e+01
1.942600059509277344e+01 0.000000000000000000e+00 0.000000000000000000e+00 2.010000050067901611e-01 1.994799995422363281e+01 0.000000000000000000e+00 3.000000119209289551e-01 1.679999977350234985e-01 2.034000015258789062e+01
1.915699958801269531e+01 0.000000000000000000e+00 0.000000000000000000e+00 4.269999861717224121e-01 2.003499984741210938e+01 0.000000000000000000e+00 3.790000081062316895e-01 1.300000026822090149e-02 1.989800071716308594e+01
1.892399978637695312e+01 0.000000000000000000e+00 0.000000000000000000e+00 1.959999948740005493e-01 1.943300056457519531e+01 0.000000000000000000e+00 2.930000126361846924e-01 1.630000025033950806e-01 1.981399917602539062e+01
1.936100006103515625e+01 0.000000000000000000e+00 0.000000000000000000e+00 2.000000029802322388e-01 1.988100051879882812e+01 0.000000000000000000e+00 2.989999949932098389e-01 1.669999957084655762e-01 2.027199935913085938e+01
1.945899963378906250e+01 0.000000000000000000e+00 0.000000000000000000e+00 -2.669999897480010986e-01 1.881900024414062500e+01 0.000000000000000000e+00 1.270000040531158447e-01 3.580000102519989014e-01 1.853400039672851562e+01
1.919899940490722656e+01 0.000000000000000000e+00 0.000000000000000000e+00 -3.889999985694885254e-01 1.982699966430664062e+01 0.000000000000000000e+00 -5.299999937415122986e-02 -8.699999749660491943e-02 1.943099975585937500e+01
1.987800025939941406e+01 0.000000000000000000e+00 0.000000000000000000e+00 1.620000004768371582e-01 1.928599929809570312e+01 0.000000000000000000e+00 1.159999966621398926e-01 2.380000054836273193e-01 1.907999992370605469e+01
1.904299926757812500e+01 0.000000000000000000e+00 0.000000000000000000e+00 -1.979999989271163940e-01 1.921800041198730469e+01 0.000000000000000000e+00 -3.970000147819519043e-01 -3.860000073909759521e-01 1.896599960327148438e+01
1.883399963378906250e+01 0.000000000000000000e+00 0.000000000000000000e+00 -3.810000121593475342e-01 1.945100021362304688e+01 0.000000000000000000e+00 -5.200000107288360596e-02 -8.600000292062759399e-02 1.906200027465820312e+01
1.995999908447265625e+01 0.000000000000000000e+00 0.000000000000000000e+00 -2.739999890327453613e-01 1.930299949645996094e+01 0.000000000000000000e+00 1.299999952316284180e-01 3.670000135898590088e-01 1.901099967956542969e+01
1.962500000000000000e+01 0.000000000000000000e+00 0.000000000000000000e+00 0.000000000000000000e+00 1.962500000000000000e+01 0.000000000000000000e+00 0.000000000000000000e+00 0.000000000000000000e+00 1.962500000000000000e+01
1.943300056457519531e+01 0.000000000000000000e+00 0.000000000000000000e+00 0.000000000000000000e+00 1.943300056457519531e+01 0.000000000000000000e+00 0.000000000000000000e+00 0.000000000000000000e+00 1.943300056457519531e+01
1.941900062561035156e+01 0.000000000000000000e+00 0.000000000000000000e+00 1.580000072717666626e-01 1.884000015258789062e+01 0.000000000000000000e+00 1.129999980330467224e-01 2.329999953508377075e-01 1.863899993896484375e+01
1.912100028991699219e+01 0.000000000000000000e+00 0.000000000000000000e+00 0.000000000000000000e+00 1.912100028991699219e+01 0.000000000000000000e+00 0.000000000000000000e+00 0.000000000000000000e+00 1.912100028991699219e+01
1.945199966430664062e+01 0.000000000000000000e+00 0.000000000000000000e+00 5.469999909400939941e-01 1.890399932861328125e+01 0.000000000000000000e+00 2.489999979734420776e-01 -1.019999980926513672e-01 1.895999908447265625e+01
1.973399925231933594e+01 0.000000000000000000e+00 0.000000000000000000e+00 0.000000000000000000e+00 1.973399925231933594e+01 0.000000000000000000e+00 0.000000000000000000e+00 0.000000000000000000e+00 1.973399925231933594e+01
1.921699905395507812e+01 0.000000000000000000e+00 0.000000000000000000e+00 3.810000121593475342e-01 1.968700027465820312e+01 0.000000000000000000e+00 -2.380000054836273193e-01 3.900000080466270447e-02 1.896400070190429688e+01
1.888199996948242188e+01 0.000000000000000000e+00 0.000000000000000000e+00 4.210000038146972656e-01 1.974699974060058594e+01 0.000000000000000000e+00 3.740000128746032715e-01 1.300000026822090149e-02 1.961199951171875000e+01
1.882500076293945312e+01 0.000000000000000000e+00 0.000000000000000000e+00 3.729999959468841553e-01 1.928599929809570312e+01 0.000000000000000000e+00 -2.339999973773956299e-01 3.799999877810478210e-02 1.857699966430664062e+01
1.880900001525878906e+01 0.000000000000000000e+00 0.000000000000000000e+00 -3.810000121593475342e-01 1.942499923706054688e+01 0.000000000000000000e+00 -5.200000107288360596e-02 -8.600000292062759399e-02 1.903700065612792969e+01
1.928400039672851562e+01 0.000000000000000000e+00 0.000000000000000000e+00 -1.040000021457672119e-01 1.876099967956542969e+01 0.000000000000000000e+00 5.519999861717224121e-01 5.700000002980232239e-02 1.892799949645996094e+01
1.913199996948242188e+01 0.000000000000000000e+00 0.000000000000000000e+00 -3.869999945163726807e-01 1.975799942016601562e+01 0.000000000000000000e+00 -5.299999937415122986e-02 -8.699999749660491943e-02 1.936300086975097656e+01
1.873699951171875000e+01 0.000000000000000000e+00 0.000000000000000000e+00 1.940000057220458984e-01 1.923999977111816406e+01 0.000000000000000000e+00 2.899999916553497314e-01 1.620000004768371582e-01 1.961800003051757812e+01
1.879100036621093750e+01 0.000000000000000000e+00 0.000000000000000000e+00 4.189999997615814209e-01 1.965200042724609375e+01 0.000000000000000000e+00 3.720000088214874268e-01 1.300000026822090149e-02 1.951799964904785156e+01
1.997800064086914062e+01 0.000000000000000000e+00 0.000000000000000000e+00 -2.419999986886978149e-01 1.922100067138671875e+01 0.000000000000000000e+00 4.359999895095825195e-01 -3.359999954700469971e-01 1.963500022888183594e+01
1.862299919128417969e+01 0.000000000000000000e+00 0.000000000000000000e+00 4.149999916553497314e-01 1.947599983215332031e+01 0.000000000000000000e+00 3.689999878406524658e-01 1.300000026822090149e-02 1.934300041198730469e+01
1.887899971008300781e+01 0.000000000000000000e+00 0.000000000000000000e+00 -1.969999969005584717e-01 1.905200004577636719e+01 0.000000000000000000e+00 -3.939999938011169434e-01 -3.829999864101409912e-01 1.880299949645996094e+01
1.944099998474121094e+01 0.000000000000000000e+00 0.000000000000000000e+00 3.860000073909759521e-01 1.991600036621093750e+01 0.000000000000000000e+00 -2.409999966621398926e-01 3.999999910593032837e-02 1.918499946594238281e+01
1.937000083923339844e+01 0.000000000000000000e+00 0.000000000000000000e+00 -1.049999967217445374e-01 1.884399986267089844e+01 0.000000000000000000e+00 5.540000200271606445e-01 5.700000002980232239e-02 1.901199913024902344e+01
1.979800033569335938e+01 0.000000000000000000e+00 0.000000000000000000e+00 -1.070000007748603821e-01 1.926099967956542969e+01 0.000000000000000000e+00 5.669999718666076660e-01 5.900000035762786865e-02 1.943300056457519531e+01
1.954700088500976562e+01 0.000000000000000000e+00 0.000000000000000000e+00 3.880000114440917969e-01 2.002499961853027344e+01 0.000000000000000000e+00 -2.419999986886978149e-01 3.999999910593032837e-02 1.928899955749511719e+01
1.898699951171875000e+01 0.000000000000000000e+00 0.000000000000000000e+00 4.239999949932098389e-01 1.985799980163574219e+01 0.000000000000000000e+00 3.759999871253967285e-01 1.300000026822090149e-02 1.972200012207031250e+01
1.992000007629394531e+01 0.000000000000000000e+00 0.000000000000000000e+00 -2.730000019073486328e-01 1.926499938964843750e+01 0.000000000000000000e+00 1.299999952316284180e-01 3.659999966621398926e-01 1.897299957275390625e+01
1.885700035095214844e+01 0.000000000000000000e+00 0.000000000000000000e+00 5.310000181198120117e-01 1.832600021362304688e+01 0.000000000000000000e+00 2.409999966621398926e-01 -9.899999946355819702e-02 1.838100051879882812e+01
1.920800018310546875e+01 0.000000000000000000e+00 0.000000000000000000e+00 5.410000085830688477e-01 1.866699981689453125e+01 0.000000000000000000e+00 2.450000047683715820e-01 -1.010000035166740417e-01 1.872299957275390625e+01
1.915299987792968750e+01 0.000000000000000000e+00 0.000000000000000000e+00 3.799999952316284180e-01 1.962100028991699219e+01 0.000000000000000000e+00 -2.380000054836273193e-01 3.900000080466270447e-02 1.889999961853027344e+01
1.930999946594238281e+01 0.000000000000000000e+00 0.000000000000000000e+00 -2.010000050067901611e-01 1.948800086975097656e+01 0.000000000000000000e+00 -4.029999971389770508e-01 -3.919999897480010986e-01 1.923200035095214844e+01
1.972999954223632812e+01 0.000000000000000000e+00 0.000000000000000000e+00 -2.389999926090240479e-01 1.898200035095214844e+01 0.000000000000000000e+00 4.309999942779541016e-01 -3.319999873638153076e-01 1.939100074768066406e+01
1.987500000000000000e+01 0.000000000000000000e+00 0.000000000000000000e+00 -2.070000022649765015e-01 2.005800056457519531e+01 0.000000000000000000e+00 -4.149999916553497314e-01 -4.029999971389770508e-01 1.979500007629394531e+01
2.005900001525878906e+01 0.000000000000000000e+00 0.000000000000000000e+00 -1.080000028014183044e-01 1.951499938964843750e+01 0.000000000000000000e+00 5.740000009536743164e-01 5.900000035762786865e-02 1.968899917602539062e+01
1.964900016784667969e+01 0.000000000000000000e+00 0.000000000000000000e+00 -2.380000054836273193e-01 1.890399932861328125e+01 0.000000000000000000e+00 4.289999902248382568e-01 -3.310000002384185791e-01 1.931200027465820312e+01
1.845100021362304688e+01 0.000000000000000000e+00 0.000000000000000000e+00 4.120000004768371582e-01 1.929700088500976562e+01 0.000000000000000000e+00 3.650000095367431641e-01 1.300000026822090149e-02 1.916500091552734375e+01
2.037999916076660156e+01 0.000000000000000000e+00 0.000000000000000000e+00 1.659999936819076538e-01 1.977300071716308594e+01 0.000000000000000000e+00 1.190000027418136597e-01 2.440000027418136597e-01 1.956200027465820312e+01
1.922299957275390625e+01 0.000000000000000000e+00 0.000000000000000000e+00 3.810000121593475342e-01 1.969300079345703125e+01 0.000000000000000000e+00 -2.380000054836273193e-01 3.900000080466270447e-02 1.896899986267089844e+01
1.970999908447265625e+01 0.000000000000000000e+00 0.000000000000000000e+00 -2.049999982118606567e-01 1.989100074768066406e+01 0.000000000000000000e+00 -4.110000133514404297e-01 -4.000000059604644775e-01 1.962999916076660156e+01
1.896999931335449219e+01 0.000000000000000000e+00 0.000000000000000000e+00 -3.840000033378601074e-01 1.959099960327148438e+01 0.000000000000000000e+00 -5.200000107288360596e-02 -8.600000292062759399e-02 1.920000076293945312e+01
1.939599990844726562e+01 0.000000000000000000e+00 0.000000000000000000e+00 3.849999904632568359e-01 1.987000083923339844e+01 0.000000000000000000e+00 -2.409999966621398926e-01 3.999999910593032837e-02 1.913999938964843750e+01
1.885899925231933594e+01 0.000000000000000000e+00 0.000000000000000000e+00 -3.819999992847442627e-01 1.947599983215332031e+01 0.000000000000000000e+00 -5.200000107288360596e-02 -8.600000292062759399e-02 1.908699989318847656e+01
1.928700065612792969e+01 0.000000000000000000e+00 0.000000000000000000e+00 -2.010000050067901611e-01 1.946500015258789062e+01 0.000000000000000000e+00 -4.020000100135803223e-01 -3.910000026226043701e-01 1.920999908447265625e+01
1.941600036621093750e+01 0.000000000000000000e+00 0.000000000000000000e+00 -3.930000066757202148e-01 2.005200004577636719e+01 0.000000000000000000e+00 -5.400000140070915222e-02 -8.799999952316284180e-02 1.965099906921386719e+01
1.891699981689453125e+01 0.000000000000000000e+00 0.000000000000000000e+00 -3.829999864101409912e-01 1.953599929809570312e+01 0.000000000000000000e+00 -5.200000107288360596e-02 -8.600000292062759399e-02 1.914599990844726562e+01
1.945199966430664062e+01 0.000000000000000000e+00 0.000000000000000000e+00 5.469999909400939941e-01 1.890500068664550781e+01 0.000000000000000000e+00 2.489999979734420776e-01 -1.019999980926513672e-01 1.896100044250488281e+01
1.907699966430664062e+01 0.000000000000000000e+00 0.000000000000000000e+00 0.000000000000000000e+00 1.907699966430664062e+01 0.000000000000000000e+00 0.000000000000000000e+00 0.000000000000000000e+00 1.907699966430664062e+01
2.024600028991699219e+01 0.000000000000000000e+00 0.000000000000000000e+00 1.650000065565109253e-01 1.964299964904785156e+01 0.000000000000000000e+00 1.180000007152557373e-01 2.430000007152557373e-01 1.943400001525878906e+01
1.890900039672851562e+01 0.000000000000000000e+00 0.000000000000000000e+00 4.219999909400939941e-01 1.977499961853027344e+01 0.000000000000000000e+00 3.740000128746032715e-01 1.300000026822090149e-02 1.963999938964843750e+01
1.897200012207031250e+01 0.000000000000000000e+00 0.000000000000000000e+00 4.230000078678131104e-01 1.984199905395507812e+01 0.000000000000000000e+00 3.759999871253967285e-01 1.300000026822090149e-02 1.970599937438964844e+01
1.962899971008300781e+01 0.000000000000000000e+00 0.000000000000000000e+00 -1.059999987483024597e-01 1.909600067138671875e+01 0.000000000000000000e+00 5.619999766349792480e-01 5.799999833106994629e-02 1.926600074768066406e+01
1.895400047302246094e+01 0.000000000000000000e+00 0.000000000000000000e+00 -3.840000033378601074e-01 1.957399940490722656e+01 0.000000000000000000e+00 -5.200000107288360596e-02 -8.600000292062759399e-02 1.918300056457519531e+01
1.959000015258789062e+01 0.000000000000000000e+00 0.000000000000000000e+00 0.000000000000000000e+00 1.959000015258789062e+01 0.000000000000000000e+00 0.000000000000000000e+00 0.000000000000000000e+00 1.959000015258789062e+01
1.978100013732910156e+01 0.000000000000000000e+00 0.000000000000000000e+00 5.569999814033508301e-01 1.922400093078613281e+01 0.000000000000000000e+00 2.529999911785125732e-01 -1.040000021457672119e-01 1.928100013732910156e+01
2.000000000000000000e+01 0.000000000000000000e+00 0.000000000000000000e+00 -2.739999890327453613e-01 1.934199905395507812e+01 0.000000000000000000e+00 1.309999972581863403e-01 3.680000007152557373e-01 1.904999923706054688e+01
2.008300018310546875e+01 0.000000000000000000e+00 0.000000000000000000e+00 -2.750000059604644775e-01 1.942200088500976562e+01 0.000000000000000000e+00 1.309999972581863403e-01 3.689999878406524658e-01 1.912800025939941406e+01
1.946299934387207031e+01 0.000000000000000000e+00 0.000000000000000000e+00 -2.669999897480010986e-01 1.882299995422363281e+01 0.000000000000000000e+00 1.270000040531158447e-01 3.580000102519989014e-01 1.853800010681152344e+01
2.021899986267089844e+01 0.000000000000000000e+00 0.000000000000000000e+00 -2.770000100135803223e-01 1.955400085449218750e+01 0.000000000000000000e+00 1.319999992847442627e-01 3.720000088214874268e-01 1.925799942016601562e+01
1.920400047302246094e+01 0.000000000000000000e+00 0.000000000000000000e+00 3.810000121593475342e-01 1.967399978637695312e+01 0.000000000000000000e+00 -2.380000054836273193e-01 3.900000080466270447e-02 1.895100021362304688e+01
1.874300003051757812e+01 0.000000000000000000e+00 0.000000000000000000e+00 1.940000057220458984e-01 1.924600028991699219e+01 0.000000000000000000e+00 2.899999916553497314e-01 1.620000004768371582e-01 1.962500000000000000e+01
1.925300025939941406e+01 0.000000000000000000e+00 0.000000000000000000e+00 -3.899999856948852539e-01 1.988299942016601562e+01 0.000000000000000000e+00 -5.299999937415122986e-02 -8.799999952316284180e-02 1.948600006103515625e+01
1.924600028991699219e+01 0.000000000000000000e+00 0.000000000000000000e+00 -3.899999856948852539e-01 1.987599945068359375e+01 0.000000000000000000e+00 -5.299999937415122986e-02 -8.799999952316284180e-02 1.947900009155273438e+01
1.808600044250488281e+01 0.000000000000000000e+00 0.000000000000000000e+00 1.870000064373016357e-01 1.857200050354003906e+01 0.000000000000000000e+00 2.800000011920928955e-01 1.560000032186508179e-01 1.893700027465820312e+01