-6.064921093750000000e+04
-6.061847656250000000e+04
-6.062001171875000000e+04
-6.061920312500000000e+04
-6.061255859375000000e+04
-6.063231640625000000e+04
-6.063218359375000000e+04
-6.061037109375000000e+04
-6.061452343750000000e+04
-6.061770312500000000e+04
-6.062849609375000000e+04
-6.064515234375000000e+04
-6.061486328125000000e+04
-6.062730078125000000e+04
-6.061098046875000000e+04
-6.064639062500000000e+04
-6.064268750000000000e+04
-6.064618750000000000e+04
-6.064944531250000000e+04
-6.064882031250000000e+04
-6.061742968750000000e+04
-6.061538671875000000e+04
-6.061721484375000000e+04
-6.062534375000000000e+04
-6.062139062500000000e+04
-6.064516015625000000e+04
-6.063137109375000000e+04
-6.064719531250000000e+04
-6.064953906250000000e+04
-6.062286718750000000e+04
-6.064824609375000000e+04
-6.062587890625000000e+04
-6.061968359375000000e+04
-6.061128515625000000e+04
-6.063080859375000000e+04
-6.061726171875000000e+04
-6.063163281250000000e+04
-6.063133593750000000e+04
-6.062862500000000000e+04
-6.064646484375000000e+04
-6.064635156250000000e+04
-6.062013671875000000e+04
-6.061479296875000000e+04
-6.061390625000000000e+04
-6.064512500000000000e+04
-6.062994140625000000e+04
-6.062926562500000000e+04
-6.061667968750000000e+04
-6.062749218750000000e+04
-6.064558593750000000e+04
-6.061808203125000000e+04
-6.062207421875000000e+04
-6.062665625000000000e+04
-6.063180468750000000e+04
-6.063212109375000000e+04
-6.064763281250000000e+04
-6.061732031250000000e+04
-6.064429687500000000e+04
-6.063257031250000000e+04
-6.063226171875000000e+04
-6.061001562500000000e+04
-6.061646484375000000e+04
-6.061972656250000000e+04
-6.061495312500000000e+04
-6.061307031250000000e+04
-6.063192968750000000e+04
-6.061514453125000000e+04
-6.063201953125000000e+04
-6.061921484375000000e+04
-6.063033203125000000e+04
-6.064804296875000000e+04
-6.064407812500000000e+04
-6.063178515625000000e+04
-6.061691015625000000e+04
-6.061771093750000000e+04
-6.064754296875000000e+04
-6.063550390625000000e+04
-6.064928515625000000e+04
-6.061427343750000000e+04
-6.063155859375000000e+04
-6.062910156250000000e+04
-6.064765234375000000e+04
-6.064419531250000000e+04
-6.064496875000000000e+04
-6.061736328125000000e+04
-6.063276171875000000e+04
-6.063035937500000000e+04
-6.061902343750000000e+04
-6.062923437500000000e+04
-6.064633593750000000e+04
-6.061681640625000000e+04
-6.064970703125000000e+04
-6.062598437500000000e+04
-6.061744531250000000e+04
-6.062778125000000000e+04
-6.063046093750000000e+04
-6.065697265625000000e+04
-6.064596093750000000e+04
-6.063405468750000000e+04
-6.061892968750000000e+04
-6.062187500000000000e+04
-6.061403125000000000e+04
-6.061803515625000000e+04
-6.064310937500000000e+04
-6.064716406250000000e+04
-6.061656250000000000e+04
-6.062956250000000000e+04
-6.061832031250000000e+04
-6.063118750000000000e+04
-6.061938671875000000e+04
-6.064042578125000000e+04
-6.063178515625000000e+04
-6.061756250000000000e+04
-6.063260937500000000e+04
-6.064646093750000000e+04
-6.064475781250000000e+04
-6.061385156250000000e+04
-6.061368359375000000e+04
-6.062732421875000000e+04
-6.063337500000000000e+04
-6.062863281250000000e+04
-6.061635546875000000e+04
-6.063248437500000000e+04
-6.062369921875000000e+04
-6.061793750000000000e+04
-6.064819140625000000e+04
-6.061877343750000000e+04
-6.063179296875000000e+04
-6.062262890625000000e+04
-6.061538671875000000e+04
-6.061392578125000000e+04
-6.065949609375000000e+04
-6.065982031250000000e+04
-6.061507421875000000e+04
-6.061933984375000000e+04
-6.062573437500000000e+04
-6.060883593750000000e+04
-6.065040234375000000e+04
-6.062151171875000000e+04
-6.062966015625000000e+04
-6.063464843750000000e+04
-6.063198046875000000e+04
-6.062572656250000000e+04
-6.064898046875000000e+04
-6.062689062500000000e+04
-6.062545703125000000e+04
-6.061395703125000000e+04
-6.061565234375000000e+04
-6.062416406250000000e+04
-6.061733593750000000e+04
-6.063116406250000000e+04
-6.063089062500000000e+04
-6.061378125000000000e+04
-6.061303515625000000e+04
-6.063054296875000000e+04
-6.064166015625000000e+04
-6.062657812500000000e+04
-6.064422656250000000e+04
-6.062771484375000000e+04
-6.065687500000000000e+04
-6.061004296875000000e+04
-6.062110156250000000e+04
-6.062868359375000000e+04
-6.061182812500000000e+04
-6.063183593750000000e+04
-6.061937500000000000e+04
-6.063189453125000000e+04
-6.061992187500000000e+04
-6.062648437500000000e+04
-6.063141015625000000e+04
-6.063482421875000000e+04
-6.063480078125000000e+04
-6.062996875000000000e+04
-6.064859765625000000e+04
-6.063041796875000000e+04
-6.061153906250000000e+04
-6.063488671875000000e+04
-6.061095703125000000e+04
-6.061393750000000000e+04
-6.063203515625000000e+04
-6.064404687500000000e+04
-6.061979296875000000e+04
-6.063471484375000000e+04
-6.061418359375000000e+04
-6.061664843750000000e+04
-6.062818750000000000e+04
-6.062775781250000000e+04
-6.062794140625000000e+04
-6.062726171875000000e+04
-6.063008203125000000e+04
-6.062636718750000000e+04
-6.062121093750000000e+04
-6.061670703125000000e+04
-6.063330859375000000e+04
-6.061543359375000000e+04
-6.064845312500000000e+04
-6.062826171875000000e+04
-6.060901171875000000e+04
-6.061667578125000000e+04
-6.064519140625000000e+04
-6.064737109375000000e+04
-6.064982031250000000e+04
-6.062948828125000000e+04
-6.063348437500000000e+04
-6.062946875000000000e+04
-6.062055078125000000e+04
-6.064085546875000000e+04
-6.062776562500000000e+04
-6.062114453125000000e+04
-6.063103515625000000e+04
-6.064845312500000000e+04
-6.061205078125000000e+04
-6.061122656250000000e+04
-6.063239843750000000e+04
-6.061577734375000000e+04
-6.061605078125000000e+04
-6.064403125000000000e+04
-6.064960156250000000e+04
-6.061408984375000000e+04
-6.062910937500000000e+04
-6.064485156250000000e+04
-6.061555468750000000e+04
-6.061425781250000000e+04
-6.061773437500000000e+04
-6.061394531250000000e+04
-6.065016796875000000e+04
-6.062971484375000000e+04
-6.064981250000000000e+04
-6.061316015625000000e+04
-6.066641796875000000e+04
-6.061751953125000000e+04
-6.064564843750000000e+04
-6.062955468750000000e+04
-6.063419921875000000e+04
-6.061401171875000000e+04
-6.061834375000000000e+04
-6.061173046875000000e+04
-6.064984375000000000e+04
-6.061680078125000000e+04
-6.065423828125000000e+04
-6.062553515625000000e+04
-6.061139843750000000e+04
-6.063159765625000000e+04
-6.061205078125000000e+04
-6.064208984375000000e+04
-6.062862500000000000e+04
-6.064798046875000000e+04
-6.064746093750000000e+04
-6.062996484375000000e+04
-6.063483203125000000e+04
-6.061611718750000000e+04
-6.061448046875000000e+04
-6.064670312500000000e+04
-6.061747656250000000e+04
-6.061558593750000000e+04
-6.061346875000000000e+04
-6.061809375000000000e+04
-6.063094531250000000e+04
-6.063449609375000000e+04
-6.062306250000000000e+04
-6.064673437500000000e+04
-6.061238671875000000e+04
-6.063202734375000000e+04
-6.064616796875000000e+04
-6.065017968750000000e+04
-6.061193750000000000e+04
-6.061556250000000000e+04
-6.061408984375000000e+04
-6.061992578125000000e+04
-6.061521484375000000e+04
-6.061671875000000000e+04
-6.063480859375000000e+04
-6.064437890625000000e+04
-6.063221093750000000e+04
-6.063445703125000000e+04
-6.061622656250000000e+04
-6.064576562500000000e+04
-6.061410156250000000e+04
-6.061615625000000000e+04
-6.061929687500000000e+04
-6.064746484375000000e+04
-6.061832031250000000e+04
-6.063033984375000000e+04
-6.063469140625000000e+04
-6.062759765625000000e+04
-6.062003125000000000e+04
-6.062803125000000000e+04
-6.064267187500000000e+04
-6.063025781250000000e+04
-6.061551562500000000e+04
-6.061877343750000000e+04
-6.062826171875000000e+04
-6.061191406250000000e+04
-6.061978906250000000e+04
-6.061286328125000000e+04
-6.061778515625000000e+04
-6.063276171875000000e+04
-6.061991796875000000e+04
-6.062883984375000000e+04
-6.061967187500000000e+04
-6.061296093750000000e+04
-6.064613671875000000e+04
-6.064419140625000000e+04
-6.061233203125000000e+04
-6.061480859375000000e+04
-6.063226171875000000e+04
-6.063290625000000000e+04
-6.064514453125000000e+04
-6.062795312500000000e+04
-6.064695703125000000e+04
-6.064413671875000000e+04
-6.061380468750000000e+04
-6.065026171875000000e+04
-6.061144140625000000e+04
-6.062858593750000000e+04
-6.064701171875000000e+04
-6.062829687500000000e+04
-6.063460937500000000e+04
-6.063191796875000000e+04
-6.063755468750000000e+04
-6.061963281250000000e+04
-6.064118750000000000e+04
-6.063464453125000000e+04
-6.062866406250000000e+04
-6.061633593750000000e+04
-6.063202734375000000e+04
-6.061492968750000000e+04
-6.062979296875000000e+04
-6.063117187500000000e+04
-6.061423437500000000e+04
-6.061895703125000000e+04
-6.061853515625000000e+04
-6.064606250000000000e+04
-6.062333593750000000e+04
-6.062767187500000000e+04
-6.061929296875000000e+04
-6.061503906250000000e+04
-6.061562890625000000e+04
-6.060800781250000000e+04
-6.064791406250000000e+04
-6.063494921875000000e+04
-6.063119531250000000e+04
-6.064500781250000000e+04
-6.064464453125000000e+04
-6.061775781250000000e+04
-6.064754687500000000e+04
-6.064755078125000000e+04
-6.061980468750000000e+04
-6.061374609375000000e+04
-6.061337500000000000e+04
-6.061610546875000000e+04
-6.062741015625000000e+04
-6.063830078125000000e+04
-6.063123828125000000e+04
-6.061331250000000000e+04
-6.061266796875000000e+04
-6.063099218750000000e+04
-6.064344140625000000e+04
-6.063267968750000000e+04
-6.061334375000000000e+04
-6.061885546875000000e+04
-6.064563671875000000e+04
-6.061792578125000000e+04
-6.064314062500000000e+04
-6.061472265625000000e+04
-6.065426953125000000e+04
-6.062791015625000000e+04
-6.062877343750000000e+04
-6.063023046875000000e+04
-6.061648437500000000e+04
-6.061816015625000000e+04
-6.062978906250000000e+04
-6.061721875000000000e+04
-6.061160546875000000e+04
-6.061476171875000000e+04
-6.064592187500000000e+04
-6.061883593750000000e+04
-6.061620312500000000e+04
-6.063057421875000000e+04
-6.063317968750000000e+04
-6.063264453125000000e+04
-6.061537109375000000e+04
-6.062133984375000000e+04
-6.061238281250000000e+04
-6.063482421875000000e+04
-6.061637890625000000e+04
-6.061614062500000000e+04
-6.061217578125000000e+04
-6.061117968750000000e+04
-6.064529296875000000e+04
-6.062350000000000000e+04
-6.061642968750000000e+04
-6.061054296875000000e+04
-6.061403125000000000e+04
-6.064943750000000000e+04
-6.063285937500000000e+04
-6.064868750000000000e+04
-6.061541796875000000e+04
-6.062842968750000000e+04
-6.062761328125000000e+04
-6.063030468750000000e+04
-6.061787890625000000e+04
-6.061314062500000000e+04
-6.062485546875000000e+04
-6.064357812500000000e+04
-6.062897656250000000e+04
-6.061898046875000000e+04
-6.061250000000000000e+04
-6.062883203125000000e+04
-6.061911328125000000e+04
-6.063084375000000000e+04
-6.061533203125000000e+04
-6.061417578125000000e+04
-6.061373437500000000e+04
-6.064605078125000000e+04
-6.061290234375000000e+04
-6.064357421875000000e+04
-6.064546875000000000e+04
-6.061776562500000000e+04
-6.064814062500000000e+04
-6.064642187500000000e+04
-6.063330078125000000e+04
-6.064799609375000000e+04
-6.061678515625000000e+04
-6.064053906250000000e+04
-6.061535156250000000e+04
-6.062216015625000000e+04
-6.061795703125000000e+04
-6.064600390625000000e+04
-6.062484765625000000e+04
-6.062081250000000000e+04
-6.066151171875000000e+04
-6.062601171875000000e+04
-6.063204296875000000e+04
-6.061658203125000000e+04
-6.062943750000000000e+04
-6.064236328125000000e+04
-6.061839843750000000e+04
-6.061925000000000000e+04
-6.061419921875000000e+04
-6.062059765625000000e+04
-6.063246875000000000e+04
-6.062026171875000000e+04
-6.063296875000000000e+04
-6.061580859375000000e+04
-6.063203906250000000e+04
-6.062149609375000000e+04
-6.061574609375000000e+04
-6.061918359375000000e+04
-6.061751171875000000e+04
-6.061653125000000000e+04
-6.063387890625000000e+04
-6.061654687500000000e+04
-6.062113281250000000e+04
-6.062224609375000000e+04
-6.062229296875000000e+04
-6.062530078125000000e+04
-6.061417187500000000e+04
-6.064930468750000000e+04
-6.063247265625000000e+04
-6.062791796875000000e+04
-6.061562890625000000e+04
-6.063108593750000000e+04
-6.062162890625000000e+04
-6.063343750000000000e+04
-6.061845703125000000e+04
-6.064993359375000000e+04
-6.060831250000000000e+04
-6.063374218750000000e+04
-6.064819140625000000e+04
-6.063076171875000000e+04
-6.062160937500000000e+04
-6.061305078125000000e+04
-6.062828906250000000e+04
-6.061826953125000000e+04
-6.061794531250000000e+04
-6.062767187500000000e+04
-6.062517578125000000e+04
-6.061777734375000000e+04
-6.064683593750000000e+04
-6.061775781250000000e+04
-6.061333203125000000e+04
-6.061364843750000000e+04
-6.062793750000000000e+04
-6.065007812500000000e+04
-6.061435156250000000e+04
-6.062959375000000000e+04
-6.063414843750000000e+04
-6.063250390625000000e+04
-6.064746484375000000e+04
-6.061727343750000000e+04
-6.061350390625000000e+04
-6.061376953125000000e+04
-6.063708203125000000e+04
-6.063225390625000000e+04
-6.062137109375000000e+04
-6.063219921875000000e+04
-6.062777734375000000e+04
-6.061449609375000000e+04
-6.061376953125000000e+04
-6.061613671875000000e+04
-6.063014062500000000e+04
-6.063016015625000000e+04
-6.061520703125000000e+04
-6.061198828125000000e+04
-6.063155078125000000e+04
-6.061801953125000000e+04
-6.063168750000000000e+04
-6.061525000000000000e+04
-6.063012890625000000e+04
-6.063109375000000000e+04
-6.061787890625000000e+04
-6.064433203125000000e+04
-6.061652343750000000e+04
-6.061712890625000000e+04
-6.064909375000000000e+04
-6.061603515625000000e+04
-6.062024218750000000e+04
-6.062858984375000000e+04
-6.062807812500000000e+04
-6.061458984375000000e+04
-6.062667187500000000e+04
-6.064679296875000000e+04
-6.061448828125000000e+04
-6.063580859375000000e+04
-6.064368750000000000e+04
-6.061165625000000000e+04
-6.062950390625000000e+04
-6.062118359375000000e+04
-6.061314062500000000e+04
-6.064319531250000000e+04
-6.061436328125000000e+04
-6.061936328125000000e+04
-6.061796875000000000e+04
-6.061593750000000000e+04
-6.062014453125000000e+04
-6.062980859375000000e+04
-6.064398437500000000e+04
-6.062729687500000000e+04
-6.062223046875000000e+04
-6.061519140625000000e+04
-6.061611718750000000e+04
-6.062566015625000000e+04
-6.063249609375000000e+04
-6.061503125000000000e+04
-6.063048046875000000e+04
-6.064729687500000000e+04
-6.061464843750000000e+04
-6.064868750000000000e+04
-6.064712500000000000e+04
-6.065082812500000000e+04
-6.061065234375000000e+04
-6.061477343750000000e+04
-6.063464453125000000e+04
-6.061723828125000000e+04
-6.064885937500000000e+04
-6.061407031250000000e+04
-6.063349218750000000e+04
-6.061333593750000000e+04
-6.061178515625000000e+04
-6.061497265625000000e+04
-6.061755859375000000e+04
-6.064785937500000000e+04
-6.062169921875000000e+04
-6.063537109375000000e+04
-6.061337500000000000e+04
-6.063317578125000000e+04
-6.065206640625000000e+04
-6.064615625000000000e+04
-6.062979687500000000e+04
-6.063025781250000000e+04
-6.064658593750000000e+04
-6.064874218750000000e+04
-6.063026171875000000e+04
-6.064223046875000000e+04
-6.062449218750000000e+04
-6.061464062500000000e+04
-6.061663281250000000e+04
-6.064678125000000000e+04
-6.061791796875000000e+04
-6.061693359375000000e+04
-6.062350000000000000e+04
-6.063260546875000000e+04
-6.064624218750000000e+04
-6.061714062500000000e+04
-6.063575000000000000e+04
-6.064058593750000000e+04
-6.061898437500000000e+04
-6.064610546875000000e+04
-6.061648046875000000e+04
-6.064812890625000000e+04
-6.063522265625000000e+04
-6.062863281250000000e+04
-6.063273828125000000e+04
-6.061084375000000000e+04
-6.061612109375000000e+04
-6.065051562500000000e+04
-6.062945703125000000e+04
-6.060855468750000000e+04
-6.064609765625000000e+04
-6.061813281250000000e+04
-6.064506250000000000e+04
-6.061875000000000000e+04
-6.061080859375000000e+04
-6.064851171875000000e+04
-6.061601562500000000e+04
-6.061605859375000000e+04
-6.061267578125000000e+04
-6.061161718750000000e+04
-6.063323828125000000e+04
-6.061626562500000000e+04
-6.065776562500000000e+04
-6.063462890625000000e+04
-6.064512109375000000e+04
-6.062875390625000000e+04
-6.063495312500000000e+04
-6.062929687500000000e+04
-6.061353906250000000e+04
-6.064685937500000000e+04
-6.062761718750000000e+04
-6.061887890625000000e+04
-6.064321093750000000e+04
-6.064707031250000000e+04
-6.063305078125000000e+04
-6.063244531250000000e+04
-6.062967968750000000e+04
-6.061801562500000000e+04
-6.061959375000000000e+04
-6.064877343750000000e+04
-6.063342968750000000e+04
-6.063049609375000000e+04
-6.061197265625000000e+04
-6.061595703125000000e+04
-6.061446093750000000e+04
-6.061689062500000000e+04
-6.063175781250000000e+04
-6.063226953125000000e+04
-6.062814453125000000e+04
-6.062114453125000000e+04
-6.061099609375000000e+04
-6.063473046875000000e+04
-6.063339843750000000e+04
-6.063610937500000000e+04
-6.062059765625000000e+04
-6.061491015625000000e+04
-6.061450781250000000e+04
-6.062851562500000000e+04
-6.063388281250000000e+04
-6.061083203125000000e+04
-6.063457812500000000e+04
-6.062701562500000000e+04
-6.063023046875000000e+04
-6.064461328125000000e+04
-6.063027734375000000e+04
-6.061428515625000000e+04
-6.061358984375000000e+04
-6.061787109375000000e+04
-6.062685156250000000e+04
-6.063493359375000000e+04
-6.064251171875000000e+04
-6.064417187500000000e+04
-6.061355859375000000e+04
-6.063551562500000000e+04
-6.061285546875000000e+04
-6.063462890625000000e+04
-6.061666796875000000e+04
-6.062986718750000000e+04
-6.064922656250000000e+04
-6.063275781250000000e+04
-6.062887890625000000e+04
-6.064766796875000000e+04
-6.061391015625000000e+04
-6.062208593750000000e+04
-6.061568750000000000e+04
-6.061364453125000000e+04
-6.061729296875000000e+04
-6.061069531250000000e+04
-6.063059375000000000e+04
-6.061640625000000000e+04
-6.062026562500000000e+04
-6.061807812500000000e+04
-6.062635546875000000e+04
-6.061484765625000000e+04
-6.063625781250000000e+04
-6.061189843750000000e+04
-6.061851562500000000e+04
-6.062905468750000000e+04
-6.061662890625000000e+04
-6.061445312500000000e+04
-6.061855859375000000e+04
-6.061782031250000000e+04
-6.061347265625000000e+04
-6.060961718750000000e+04
-6.061374609375000000e+04
-6.063501171875000000e+04
-6.064445312500000000e+04
-6.060886328125000000e+04
-6.064870703125000000e+04
-6.062725000000000000e+04
-6.061095312500000000e+04
-6.062943359375000000e+04
-6.063223437500000000e+04
-6.061872265625000000e+04
-6.065064843750000000e+04
-6.061429296875000000e+04
-6.061608984375000000e+04
-6.066286718750000000e+04
-6.064804296875000000e+04
-6.061734765625000000e+04
-6.061662500000000000e+04
-6.064825390625000000e+04
-6.062637890625000000e+04
-6.064825390625000000e+04
-6.063096093750000000e+04
-6.063466015625000000e+04
-6.063289843750000000e+04
-6.062930468750000000e+04
-6.064644140625000000e+04
-6.061508593750000000e+04
-6.061830468750000000e+04
-6.063419921875000000e+04
-6.061354296875000000e+04
-6.063116796875000000e+04
-6.065002343750000000e+04
-6.063142187500000000e+04
-6.064791406250000000e+04
-6.064495312500000000e+04
-6.061389453125000000e+04
-6.061899609375000000e+04
-6.064912890625000000e+04
-6.064871093750000000e+04
-6.064535546875000000e+04
-6.061808593750000000e+04
-6.061575781250000000e+04
-6.063421093750000000e+04
-6.064594140625000000e+04
-6.061935156250000000e+04
-6.064924218750000000e+04
-6.063074218750000000e+04
-6.063207031250000000e+04
-6.061184765625000000e+04
-6.063521875000000000e+04
-6.061869140625000000e+04
-6.061761328125000000e+04
-6.064416015625000000e+04
-6.063014453125000000e+04
-6.062518750000000000e+04
-6.061378125000000000e+04
-6.061220703125000000e+04
-6.063601171875000000e+04
-6.060997656250000000e+04
-6.062925781250000000e+04
-6.063151953125000000e+04
-6.065048828125000000e+04
-6.061850781250000000e+04
-6.061453125000000000e+04
-6.061342578125000000e+04
-6.061773437500000000e+04
-6.063148437500000000e+04
-6.062866406250000000e+04
-6.063380859375000000e+04
-6.061328906250000000e+04
-6.063024218750000000e+04
-6.063102343750000000e+04
-6.062251171875000000e+04
-6.064417187500000000e+04
-6.063633203125000000e+04
-6.061981640625000000e+04
-6.061608203125000000e+04
-6.061940625000000000e+04
-6.064419921875000000e+04
-6.064406640625000000e+04
-6.061859375000000000e+04
-6.062773046875000000e+04
-6.064994140625000000e+04
-6.060948828125000000e+04
-6.061618750000000000e+04
-6.064894921875000000e+04
-6.063252734375000000e+04
-6.063435156250000000e+04
-6.061869921875000000e+04
-6.063673437500000000e+04
-6.063024218750000000e+04
-6.064511718750000000e+04
-6.061361718750000000e+04
-6.062053515625000000e+04
-6.060973046875000000e+04
-6.061696875000000000e+04
-6.063451171875000000e+04
-6.061576171875000000e+04
-6.064721093750000000e+04
-6.064786718750000000e+04
-6.064573828125000000e+04
-6.064201171875000000e+04
-6.065215234375000000e+04
-6.062223828125000000e+04
-6.061569921875000000e+04
-6.064712500000000000e+04
-6.063600390625000000e+04
-6.061224609375000000e+04
-6.061474218750000000e+04
-6.061496484375000000e+04
-6.063285156250000000e+04
-6.061732421875000000e+04
-6.061646484375000000e+04
-6.061544531250000000e+04
-6.062018750000000000e+04
-6.061494921875000000e+04
-6.063147656250000000e+04
-6.061714843750000000e+04
-6.061657031250000000e+04
-6.061524218750000000e+04
-6.063017968750000000e+04
-6.061607031250000000e+04
-6.063549609375000000e+04
-6.062110546875000000e+04
-6.064375000000000000e+04
-6.065044921875000000e+04
-6.061516406250000000e+04
-6.063012890625000000e+04
-6.063576562500000000e+04
-6.063027734375000000e+04
-6.063151953125000000e+04
-6.062513281250000000e+04
-6.061363671875000000e+04
-6.064537890625000000e+04
-6.063421093750000000e+04
-6.064890234375000000e+04
-6.061944921875000000e+04
-6.062988671875000000e+04
-6.061367578125000000e+04
-6.061708593750000000e+04
-6.064190234375000000e+04
-6.063007812500000000e+04
-6.061336328125000000e+04
-6.063305078125000000e+04
-6.063295312500000000e+04
-6.063000390625000000e+04
-6.063098046875000000e+04
-6.064743359375000000e+04
-6.064789062500000000e+04
-6.062931250000000000e+04
-6.061124218750000000e+04
-6.064886328125000000e+04
-6.061638671875000000e+04
-6.061251562500000000e+04
-6.061837500000000000e+04
-6.061667187500000000e+04
-6.061217187500000000e+04
-6.061506250000000000e+04
-6.061582812500000000e+04
-6.063009765625000000e+04
-6.064716406250000000e+04
-6.064412890625000000e+04
-6.063531250000000000e+04
-6.063480078125000000e+04
-6.062835937500000000e+04
-6.065428515625000000e+04
-6.064996484375000000e+04
-6.065003906250000000e+04
-6.061739062500000000e+04
-6.064186718750000000e+04
-6.065151562500000000e+04
-6.062761328125000000e+04
-6.062674218750000000e+04
-6.064722656250000000e+04
-6.064895312500000000e+04
-6.062852343750000000e+04
-6.061697656250000000e+04
-6.061228515625000000e+04
-6.061637109375000000e+04
-6.061532031250000000e+04
-6.063083593750000000e+04
-6.063161718750000000e+04
-6.063173046875000000e+04
-6.064944140625000000e+04
-6.064725781250000000e+04
-6.062628515625000000e+04
-6.064726171875000000e+04
-6.064847656250000000e+04
-6.061762890625000000e+04
-6.061424609375000000e+04
-6.063223437500000000e+04
-6.064733203125000000e+04
-6.064680859375000000e+04
-6.064718359375000000e+04
-6.063228125000000000e+04
-6.064917578125000000e+04
-6.063314843750000000e+04
-6.061108593750000000e+04
-6.060937500000000000e+04
-6.061186328125000000e+04
-6.062050000000000000e+04
-6.061719531250000000e+04
-6.062877343750000000e+04
-6.062938671875000000e+04
-6.064491796875000000e+04
-6.064865625000000000e+04
-6.061470703125000000e+04
-6.061248828125000000e+04
-6.061615625000000000e+04
-6.061526953125000000e+04
-6.064799609375000000e+04
-6.063005468750000000e+04
-6.064705078125000000e+04
-6.061798046875000000e+04
-6.061610546875000000e+04
-6.061296093750000000e+04
-6.063350781250000000e+04
-6.061902343750000000e+04
-6.062999218750000000e+04
-6.061505859375000000e+04
-6.063022265625000000e+04
-6.064799609375000000e+04
-6.062019140625000000e+04
-6.062559765625000000e+04
-6.061366406250000000e+04
-6.061766406250000000e+04
-6.061357421875000000e+04
-6.065025000000000000e+04
-6.061685546875000000e+04
-6.063762500000000000e+04
-6.061794921875000000e+04
-6.063255468750000000e+04
-6.065098437500000000e+04
-6.061259375000000000e+04
-6.063546484375000000e+04
-6.062900000000000000e+04
-6.064164453125000000e+04
-6.061641015625000000e+04
-6.061467187500000000e+04
-6.064636328125000000e+04
-6.062984765625000000e+04
-6.063003515625000000e+04
-6.063070703125000000e+04
-6.061665625000000000e+04
-6.061275390625000000e+04
-6.061647656250000000e+04
-6.064705859375000000e+04
-6.064417187500000000e+04
-6.061567187500000000e+04
-6.064602343750000000e+04
-6.062943750000000000e+04
-6.063185937500000000e+04
-6.064789062500000000e+04
-6.064949218750000000e+04
-6.061811718750000000e+04
-6.063267578125000000e+04
-6.062533984375000000e+04
-6.062712890625000000e+04
-6.063166015625000000e+04
-6.064296093750000000e+04
-6.064562109375000000e+04
-6.064408984375000000e+04
-6.061807421875000000e+04
-6.062571093750000000e+04
-6.064819531250000000e+04
-6.061769921875000000e+04
-6.064742968750000000e+04
-6.061459765625000000e+04
-6.061340625000000000e+04
-6.063028906250000000e+04
-6.063107031250000000e+04
-6.061446875000000000e+04
-6.061938281250000000e+04
-6.064333593750000000e+04
-6.061407421875000000e+04
-6.062059765625000000e+04
-6.062944921875000000e+04
-6.062230859375000000e+04
-6.063408593750000000e+04
-6.062708203125000000e+04
-6.062572656250000000e+04
-6.064533984375000000e+04
-6.061799218750000000e+04
-6.064292578125000000e+04
-6.061969921875000000e+04
-6.063488281250000000e+04
-6.061853125000000000e+04
-6.061880078125000000e+04
-6.066166796875000000e+04
-6.062981640625000000e+04
-6.064768750000000000e+04
-6.061842578125000000e+04
-6.062613671875000000e+04
-6.063199218750000000e+04
-6.061707421875000000e+04
-6.064588671875000000e+04
-6.061707812500000000e+04
-6.064653515625000000e+04
-6.061374218750000000e+04
-6.061713671875000000e+04
-6.063188671875000000e+04
-6.063304687500000000e+04
-6.064563281250000000e+04
-6.061564843750000000e+04
-6.062043359375000000e+04
-6.063204296875000000e+04
-6.064552343750000000e+04
-6.064957812500000000e+04
-6.061394140625000000e+04
-6.064983984375000000e+04
-6.064697265625000000e+04
-6.061548437500000000e+04
-6.064884765625000000e+04
-6.063295312500000000e+04
-6.064645703125000000e+04
-6.061711718750000000e+04
-6.065324218750000000e+04
-6.063283984375000000e+04
-6.061312109375000000e+04
-6.063092187500000000e+04
-6.063006640625000000e+04
-6.061178515625000000e+04
-6.061982421875000000e+04
-6.065135937500000000e+04
-6.061907812500000000e+04
-6.062244140625000000e+04
-6.060851171875000000e+04
-6.061351171875000000e+04
-6.061273046875000000e+04
-6.064216015625000000e+04
-6.064483593750000000e+04
-6.061432812500000000e+04
-6.063265234375000000e+04
-6.064556250000000000e+04
-6.061710546875000000e+04
-6.064723046875000000e+04
-6.061375000000000000e+04
-6.064751953125000000e+04
-6.064629687500000000e+04
-6.061544531250000000e+04
-6.061550390625000000e+04
-6.060993359375000000e+04
-6.061985937500000000e+04
-6.063154296875000000e+04
-6.061244140625000000e+04
-6.063143359375000000e+04
-6.061686718750000000e+04
-6.061637500000000000e+04
-6.063251171875000000e+04
-6.064832421875000000e+04
-6.062879296875000000e+04
-6.064510546875000000e+04
-6.062350390625000000e+04
-6.062980859375000000e+04
-6.061303515625000000e+04
-6.063814062500000000e+04
-6.061465234375000000e+04
-6.061208593750000000e+04
-6.063502734375000000e+04
-6.064823046875000000e+04
-6.061396875000000000e+04
-6.061816015625000000e+04
-6.063995312500000000e+04
-6.062826953125000000e+04
-6.063264062500000000e+04
-6.063020312500000000e+04
-6.063175000000000000e+04
-6.061361328125000000e+04
-6.061710937500000000e+04
-6.062744921875000000e+04
-6.064653906250000000e+04
-6.061841796875000000e+04
-6.064743359375000000e+04
-6.063216406250000000e+04
-6.061398828125000000e+04
-6.061528125000000000e+04
-6.061080078125000000e+04
-6.062612500000000000e+04
-6.061650390625000000e+04
-6.061666015625000000e+04
-6.064021484375000000e+04
-6.063146875000000000e+04
-6.063008203125000000e+04
-6.065102343750000000e+04
-6.061469921875000000e+04
-6.064517187500000000e+04
-6.064967578125000000e+04
-6.062840234375000000e+04
-6.063115625000000000e+04
-6.062697656250000000e+04
-6.061698828125000000e+04
-6.063127734375000000e+04
-6.064311328125000000e+04
-6.064929296875000000e+04
-6.063043750000000000e+04
-6.061787109375000000e+04
-6.063157812500000000e+04
-6.062226953125000000e+04
-6.061990234375000000e+04
-6.064832812500000000e+04
-6.064983984375000000e+04
-6.064924609375000000e+04
-6.064756640625000000e+04
-6.062125390625000000e+04
-6.064630078125000000e+04
-6.064746484375000000e+04
-6.063164843750000000e+04
-6.062163671875000000e+04
-6.061624609375000000e+04
-6.061822656250000000e+04
-6.062833593750000000e+04
-6.065414843750000000e+04
-6.064705078125000000e+04
-6.064109375000000000e+04
-6.061823437500000000e+04
-6.062069531250000000e+04
-6.061411328125000000e+04
-6.062787890625000000e+04
-6.064827343750000000e+04
-6.063186328125000000e+04
-6.061968359375000000e+04
-6.063493359375000000e+04
-6.061708593750000000e+04
-6.063169531250000000e+04
-6.061532031250000000e+04
-6.061411328125000000e+04
-6.061812500000000000e+04
-6.061108203125000000e+04
-6.063167578125000000e+04
-6.061880078125000000e+04
-6.062858984375000000e+04
-6.063291015625000000e+04
-6.063174218750000000e+04
-6.066124609375000000e+04
-6.061849609375000000e+04
-6.064679296875000000e+04
-6.061707812500000000e+04
-6.061452343750000000e+04
-6.062118750000000000e+04
-6.064411718750000000e+04
-6.061880078125000000e+04
-6.061289453125000000e+04
-6.064532421875000000e+04
-6.061578125000000000e+04
-6.064551171875000000e+04
-6.065301171875000000e+04
-6.064717578125000000e+04
-6.062857812500000000e+04
-6.061720703125000000e+04
-6.062007812500000000e+04
-6.061210937500000000e+04
-6.064670703125000000e+04
-6.061365234375000000e+04
-6.063046484375000000e+04
-6.062098828125000000e+04
-6.061284765625000000e+04
-6.062674218750000000e+04
-6.064567187500000000e+04
-6.064467187500000000e+04
-6.062634375000000000e+04
-6.061694921875000000e+04