-2.456864356994628906e+01 8.007647514343261719e+00 -2.569717407226562500e+00 8.007647514343261719e+00 -2.897557449340820312e+01 -8.609670639038085938e+00 -2.569717407226562500e+00 -8.609670639038085938e+00 -5.112815093994140625e+01
-5.684505462646484375e+01 1.711033630371093750e+01 -5.470220565795898438e+00 1.711033630371093750e+01 -5.018729782104492188e+01 9.674427986145019531e+00 -5.470220565795898438e+00 9.674427986145019531e+00 -2.493261718750000000e+01
-4.935014343261718750e+01 9.542200088500976562e+00 8.629501342773437500e+00 9.542200088500976562e+00 -4.586192321777343750e+01 -8.138191223144531250e+00 8.629501342773437500e+00 -8.138191223144531250e+00 -3.815519714355468750e+01
-6.344614028930664062e+01 -1.740457344055175781e+01 9.194263458251953125e+00 -1.740457344055175781e+01 -5.009273910522460938e+01 1.259435939788818359e+01 9.194263458251953125e+00 1.259435939788818359e+01 -4.113064575195312500e+01
-4.354909133911132812e+01 7.804428577423095703e+00 6.747452735900878906e+00 7.804428577423095703e+00 -2.784670639038085938e+01 -1.352134704589843750e+01 6.747452735900878906e+00 -1.352134704589843750e+01 -6.158378601074218750e+01
-3.982715988159179688e+01 1.942789927124977112e-02 6.274036407470703125e+00 1.942789927124977112e-02 -3.802077865600585938e+01 -1.209576606750488281e+01 6.274036407470703125e+00 -1.209576606750488281e+01 -2.096084213256835938e+01
1.731714367866516113e+00 9.350728988647460938e+00 -5.601981163024902344e+00 9.350728988647460938e+00 -6.103773498535156250e+01 -7.355496406555175781e+00 -5.601981163024902344e+00 -7.355496406555175781e+00 4.346215248107910156e+00
-5.300089645385742188e+01 1.062498950958251953e+01 -1.825960540771484375e+01 1.062498950958251953e+01 -7.580546569824218750e+01 4.526315689086914062e+00 -1.825960540771484375e+01 4.526315689086914062e+00 -6.814673614501953125e+01
-5.388409423828125000e+01 -5.151280879974365234e+00 -1.222797989845275879e+00 -5.151280879974365234e+00 -1.633440780639648438e+01 2.427136802673339844e+01 -1.222797989845275879e+00 2.427136802673339844e+01 -4.091954803466796875e+01
2.964080047607421875e+01 8.883895874023437500e-01 1.406336784362792969e+01 8.883895874023437500e-01 -3.293952178955078125e+01 -1.313117599487304688e+01 1.406336784362792969e+01 -1.313117599487304688e+01 -1.276615810394287109e+01
-3.517781448364257812e+01 1.503479361534118652e+00 -8.207677602767944336e-01 1.503479361534118652e+00 -4.693228912353515625e+01 1.113577747344970703e+01 -8.207677602767944336e-01 1.113577747344970703e+01 -2.952202033996582031e+01
-3.326115417480468750e+01 -3.708610296249389648e+00 9.343235015869140625e+00 -3.708610296249389648e+00 -4.087835311889648438e+01 -1.404181194305419922e+01 9.343235015869140625e+00 -1.404181194305419922e+01 -3.225687026977539062e+01
-2.918924331665039062e+01 -3.238907814025878906e+00 2.533744096755981445e+00 -3.238907814025878906e+00 -1.610918426513671875e+01 -2.353904008865356445e+00 2.533744096755981445e+00 -2.353904008865356445e+00 -1.538451004028320312e+01
-3.283735656738281250e+01 -1.273587703704833984e+01 1.217019081115722656e+01 -1.273587703704833984e+01 -1.103856754302978516e+01 -1.201519012451171875e+01 1.217019081115722656e+01 -1.201519012451171875e+01 -2.048336791992187500e+01
-1.251787471771240234e+01 4.325997352600097656e+00 -1.346452426910400391e+01 4.325997352600097656e+00 -3.695497512817382812e+00 -2.691678810119628906e+01 -1.346452426910400391e+01 -2.691678810119628906e+01 -4.608808994293212891e+00
1.072063922882080078e+01 -3.221222162246704102e-01 -1.123456478118896484e+01 -3.221222162246704102e-01 -1.923580741882324219e+01 -4.058737754821777344e+00 -1.123456478118896484e+01 -4.058737754821777344e+00 2.114363908767700195e+00
-5.650328159332275391e+00 1.248997402191162109e+01 -2.368144226074218750e+01 1.248997402191162109e+01 -2.094713401794433594e+01 -6.014059543609619141e+00 -2.368144226074218750e+01 -6.014059543609619141e+00 -2.472846984863281250e+01
-7.265610218048095703e+00 -8.215060234069824219e+00 3.660785675048828125e+00 -8.215060234069824219e+00 -3.888644790649414062e+01 -2.001872062683105469e+01 3.660785675048828125e+00 -2.001872062683105469e+01 -2.124988174438476562e+01
-2.789366912841796875e+01 3.400086879730224609e+00 -9.155633926391601562e+00 3.400086879730224609e+00 -3.223967742919921875e+01 -1.716646552085876465e+00 -9.155633926391601562e+00 -1.716646552085876465e+00 -3.558103084564208984e+00
-4.220345306396484375e+01 -2.916316270828247070e+00 8.409667015075683594e+00 -2.916316270828247070e+00 -2.777986907958984375e+01 -1.077771949768066406e+01 8.409667015075683594e+00 -1.077771949768066406e+01 -1.841448402404785156e+01
-6.501876068115234375e+01 3.425725460052490234e+00 1.157988357543945312e+01 3.425725460052490234e+00 -1.610195541381835938e+01 -4.989490032196044922e+00 1.157988357543945312e+01 -4.989490032196044922e+00 -5.992526245117187500e+01
9.676661491394042969e+00 -2.776232481002807617e+00 -7.324621677398681641e+00 -2.776232481002807617e+00 -3.155569267272949219e+01 1.333573627471923828e+01 -7.324621677398681641e+00 1.333573627471923828e+01 -4.724683761596679688e+01
-5.213422012329101562e+01 1.731384849548339844e+01 3.601001739501953125e+00 1.731384849548339844e+01 -2.806466674804687500e+01 -1.752379685640335083e-01 3.601001739501953125e+00 -1.752379685640335083e-01 -3.878611373901367188e+01
-2.760683631896972656e+01 -5.607562065124511719e+00 -1.193902969360351562e+01 -5.607562065124511719e+00 -8.373686790466308594e+00 1.276156544685363770e+00 -1.193902969360351562e+01 1.276156544685363770e+00 -3.616849136352539062e+01
-2.301783370971679688e+01 -6.556611537933349609e+00 -3.529332637786865234e+00 -6.556611537933349609e+00 -3.516381454467773438e+01 -5.329332828521728516e+00 -3.529332637786865234e+00 -5.329332828521728516e+00 -3.209403228759765625e+01
-1.820764541625976562e+01 6.921918869018554688e+00 -6.653793811798095703e+00 6.921918869018554688e+00 -1.940188598632812500e+01 1.712984275817871094e+01 -6.653793811798095703e+00 1.712984275817871094e+01 -3.574565505981445312e+01
-1.343724536895751953e+01 -2.034464836120605469e+00 -1.023329067230224609e+01 -2.034464836120605469e+00 -2.318757057189941406e+01 -1.584730434417724609e+01 -1.023329067230224609e+01 -1.584730434417724609e+01 -2.412236595153808594e+01
-1.705437660217285156e+01 -1.614244461059570312e+01 6.609310150146484375e+00 -1.614244461059570312e+01 -3.910187149047851562e+01 -4.400474548339843750e+00 6.609310150146484375e+00 -4.400474548339843750e+00 -9.051269531250000000e+00
-2.132850456237792969e+01 5.840791225433349609e+00 -1.956009387969970703e+00 5.840791225433349609e+00 -1.091565990447998047e+01 4.204307079315185547e+00 -1.956009387969970703e+00 4.204307079315185547e+00 -4.557587814331054688e+01
-4.362557983398437500e+01 -7.019445419311523438e+00 5.257984161376953125e+00 -7.019445419311523438e+00 -4.442491149902343750e+01 -3.180039882659912109e+00 5.257984161376953125e+00 -3.180039882659912109e+00 -1.965577507019042969e+01
-3.683737945556640625e+01 5.774735927581787109e+00 -1.423140811920166016e+01 5.774735927581787109e+00 -3.259106063842773438e+01 -4.637230396270751953e+00 -1.423140811920166016e+01 -4.637230396270751953e+00 -3.936711120605468750e+01
-2.411214256286621094e+01 -2.470857650041580200e-01 8.106724739074707031e+00 -2.470857650041580200e-01 -2.882501983642578125e+01 -1.091669082641601562e+01 8.106724739074707031e+00 -1.091669082641601562e+01 -5.089634704589843750e+01
-2.958163833618164062e+01 -7.944210529327392578e+00 1.704659938812255859e+00 -7.944210529327392578e+00 6.514414310455322266e+00 1.383153247833251953e+01 1.704659938812255859e+00 1.383153247833251953e+01 -2.212899971008300781e+01
1.559795284271240234e+01 4.136332988739013672e+00 -1.792127037048339844e+01 4.136332988739013672e+00 9.462470054626464844e+00 -7.856436252593994141e+00 -1.792127037048339844e+01 -7.856436252593994141e+00 2.691823005676269531e+01
-1.198771190643310547e+01 -1.384904289245605469e+01 8.029038429260253906e+00 -1.384904289245605469e+01 -1.898750495910644531e+01 1.267409038543701172e+01 8.029038429260253906e+00 1.267409038543701172e+01 -3.413750457763671875e+01
-1.220997905731201172e+01 8.458729743957519531e+00 1.631965255737304688e+01 8.458729743957519531e+00 -1.373459243774414062e+01 -2.664806747436523438e+01 1.631965255737304688e+01 -2.664806747436523438e+01 -4.990864944458007812e+01
-2.510486412048339844e+01 -4.864491462707519531e+00 -1.796434164047241211e+00 -4.864491462707519531e+00 -5.436631011962890625e+01 2.062193489074707031e+01 -1.796434164047241211e+00 2.062193489074707031e+01 -1.601449203491210938e+01
-6.916199493408203125e+01 1.138983130455017090e+00 7.277070522308349609e+00 1.138983130455017090e+00 -1.948757934570312500e+01 2.299583107233047485e-01 7.277070522308349609e+00 2.299583107233047485e-01 -4.512867736816406250e+01
-8.607135772705078125e+00 3.359715938568115234e-01 -4.828103065490722656e+00 3.359715938568115234e-01 -1.729978942871093750e+01 -2.355301284790039062e+01 -4.828103065490722656e+00 -2.355301284790039062e+01 -8.689381599426269531e+00
-1.123622703552246094e+01 -2.202588081359863281e+00 -3.245826244354248047e+00 -2.202588081359863281e+00 -2.719508934020996094e+01 3.186751842498779297e+00 -3.245826244354248047e+00 3.186751842498779297e+00 3.066667556762695312e+00
-1.254988861083984375e+01 -1.572794914245605469e+00 2.185032606124877930e+00 -1.572794914245605469e+00 -2.607688713073730469e+01 -2.832757711410522461e+00 2.185032606124877930e+00 -2.832757711410522461e+00 -3.255161666870117188e+01
-4.068713760375976562e+01 2.772762680053710938e+01 3.817811489105224609e+00 2.772762680053710938e+01 -3.091049003601074219e+01 -5.360206127166748047e+00 3.817811489105224609e+00 -5.360206127166748047e+00 -4.135156250000000000e+01
-4.047185134887695312e+01 -3.855882644653320312e+00 -5.687340736389160156e+00 -3.855882644653320312e+00 -2.295891189575195312e+01 -7.862040042877197266e+00 -5.687340736389160156e+00 -7.862040042877197266e+00 -6.080556106567382812e+01
-3.500004959106445312e+01 -8.807494163513183594e+00 -1.466929793357849121e+00 -8.807494163513183594e+00 -1.047139930725097656e+01 8.663360029458999634e-02 -1.466929793357849121e+00 8.663360029458999634e-02 -2.409052848815917969e+00
-4.337804794311523438e+00 -3.282948732376098633e+00 -1.063872241973876953e+01 -3.282948732376098633e+00 -9.668857574462890625e+00 3.003258705139160156e+01 -1.063872241973876953e+01 3.003258705139160156e+01 2.490944290161132812e+01
-2.709213447570800781e+01 -1.159365272521972656e+01 2.110878944396972656e+00 -1.159365272521972656e+01 -3.485951614379882812e+01 2.989186525344848633e+00 2.110878944396972656e+00 2.989186525344848633e+00 -8.315390777587890625e+01
-4.785920333862304688e+01 1.564839363098144531e+01 1.503426909446716309e+00 1.564839363098144531e+01 -6.384399414062500000e+01 -1.961061668395996094e+01 1.503426909446716309e+00 -1.961061668395996094e+01 -1.140000915527343750e+01
-3.927096939086914062e+01 -7.963224411010742188e+00 2.127474308013916016e+00 -7.963224411010742188e+00 -5.191186904907226562e+01 1.160560417175292969e+01 2.127474308013916016e+00 1.160560417175292969e+01 -2.899070358276367188e+01
-5.611334609985351562e+01 1.078402900695800781e+01 3.224364519119262695e+00 1.078402900695800781e+01 -2.645340538024902344e+01 6.619729995727539062e+00 3.224364519119262695e+00 6.619729995727539062e+00 -3.063863754272460938e+01
-2.392154502868652344e+01 5.844075679779052734e+00 8.229375839233398438e+00 5.844075679779052734e+00 -3.844920730590820312e+01 7.418849945068359375e+00 8.229375839233398438e+00 7.418849945068359375e+00 -3.665035629272460938e+01
-4.934263992309570312e+01 7.278106689453125000e+00 1.034484195709228516e+01 7.278106689453125000e+00 -4.464811325073242188e+01 9.557549476623535156e+00 1.034484195709228516e+01 9.557549476623535156e+00 -3.303783798217773438e+01
-2.750947189331054688e+01 2.071783447265625000e+01 8.602309226989746094e+00 2.071783447265625000e+01 -4.033324718475341797e+00 -8.541428565979003906e+00 8.602309226989746094e+00 -8.541428565979003906e+00 -4.084016799926757812e+01
1.345201683044433594e+01 1.601297760009765625e+01 -3.617622137069702148e+00 1.601297760009765625e+01 -1.639449882507324219e+01 -7.282614231109619141e+00 -3.617622137069702148e+00 -7.282614231109619141e+00 6.403412342071533203e+00
-4.432706069946289062e+01 2.472486495971679688e+00 -8.087187767028808594e+00 2.472486495971679688e+00 -3.602486038208007812e+01 -1.861352348327636719e+01 -8.087187767028808594e+00 -1.861352348327636719e+01 -2.391171646118164062e+01
-3.111119079589843750e+01 6.486912369728088379e-01 1.526274585723876953e+01 6.486912369728088379e-01 -1.096679019927978516e+01 6.596955657005310059e-01 1.526274585723876953e+01 6.596955657005310059e-01 -2.675914764404296875e+01
-4.368714141845703125e+01 2.351945877075195312e+00 -7.528627395629882812e+00 2.351945877075195312e+00 -4.822028732299804688e+01 1.647631072998046875e+01 -7.528627395629882812e+00 1.647631072998046875e+01 -1.558457851409912109e+01
-5.339976501464843750e+01 -1.161508464813232422e+01 -6.213234901428222656e+00 -1.161508464813232422e+01 -5.017266082763671875e+01 -2.809667587280273438e+00 -6.213234901428222656e+00 -2.809667587280273438e+00 -3.591580963134765625e+01
-4.638805389404296875e+01 1.356248092651367188e+01 -5.646943092346191406e+00 1.356248092651367188e+01 -2.273113441467285156e+01 -5.562826156616210938e+00 -5.646943092346191406e+00 -5.562826156616210938e+00 -1.760056114196777344e+01
-4.082672500610351562e+01 -1.598781704902648926e+00 1.570977306365966797e+01 -1.598781704902648926e+00 -2.618548583984375000e+01 -1.219933032989501953e+01 1.570977306365966797e+01 -1.219933032989501953e+01 -4.106336975097656250e+01
-6.892020702362060547e+00 1.481623268127441406e+01 2.256490588188171387e-01 1.481623268127441406e+01 -1.790027046203613281e+01 -2.191443681716918945e+00 2.256490588188171387e-01 -2.191443681716918945e+00 -4.773737716674804688e+01
-5.924240875244140625e+01 -9.436437606811523438e+00 -3.039886951446533203e-01 -9.436437606811523438e+00 -1.867131996154785156e+01 -7.645711421966552734e+00 -3.039886951446533203e-01 -7.645711421966552734e+00 -5.514182281494140625e+01
-3.645539855957031250e+01 1.712835693359375000e+01 -3.608834743499755859e+00 1.712835693359375000e+01 -3.435246658325195312e+01 -8.487821578979492188e+00 -3.608834743499755859e+00 -8.487821578979492188e+00 -4.181063461303710938e+01
-3.311720275878906250e+01 6.366895198822021484e+00 9.841096878051757812e+00 6.366895198822021484e+00 -4.828656673431396484e+00 -1.512515258789062500e+01 9.841096878051757812e+00 -1.512515258789062500e+01 -3.054045295715332031e+01
-2.106392097473144531e+01 2.272415876388549805e+00 -4.243824958801269531e+00 2.272415876388549805e+00 -2.218682670593261719e+01 -5.175318241119384766e+00 -4.243824958801269531e+00 -5.175318241119384766e+00 -1.008371734619140625e+01
-2.741452026367187500e+01 -6.859864234924316406e+00 -1.015699100494384766e+01 -6.859864234924316406e+00 -3.871657848358154297e+00 5.032569885253906250e+00 -1.015699100494384766e+01 5.032569885253906250e+00 -1.231183624267578125e+01
-3.681135940551757812e+01 3.762131631374359131e-01 3.163413763046264648e+00 3.762131631374359131e-01 -4.316430282592773438e+01 -4.303565025329589844e+00 3.163413763046264648e+00 -4.303565025329589844e+00 -2.814123916625976562e+01
-3.894009399414062500e+01 -5.538146972656250000e+00 1.476850986480712891e+00 -5.538146972656250000e+00 -1.716385841369628906e+01 -1.936016678810119629e+00 1.476850986480712891e+00 -1.936016678810119629e+00 -2.217564773559570312e+01
-4.234409713745117188e+01 7.890806198120117188e+00 -6.947368621826171875e+00 7.890806198120117188e+00 -4.192819213867187500e+01 1.184626579284667969e+00 -6.947368621826171875e+00 1.184626579284667969e+00 -3.470900344848632812e+01
-2.034717178344726562e+01 -2.106310844421386719e+00 -4.636789798736572266e+00 -2.106310844421386719e+00 -2.461135101318359375e+01 1.787268638610839844e+01 -4.636789798736572266e+00 1.787268638610839844e+01 -2.255763244628906250e+01
-3.906860733032226562e+01 1.923754119873046875e+01 7.919626712799072266e+00 1.923754119873046875e+01 -2.528715705871582031e+01 -3.320632934570312500e+00 7.919626712799072266e+00 -3.320632934570312500e+00 -1.154357051849365234e+01
-2.917141723632812500e+01 -6.287922382354736328e+00 6.816362380981445312e+00 -6.287922382354736328e+00 -3.459786605834960938e+01 5.724208831787109375e+00 6.816362380981445312e+00 5.724208831787109375e+00 -2.005312347412109375e+01
-3.791566085815429688e+01 -6.639309883117675781e+00 -2.912897109985351562e+00 -6.639309883117675781e+00 -2.981589889526367188e+01 9.558885574340820312e+00 -2.912897109985351562e+00 9.558885574340820312e+00 1.565962791442871094e+00
-1.456273269653320312e+01 -3.558772659301757812e+01 1.840840339660644531e+01 -3.558772659301757812e+01 -3.861483383178710938e+01 -1.598037147521972656e+01 1.840840339660644531e+01 -1.598037147521972656e+01 -4.802048683166503906e+00
-4.938085174560546875e+01 7.360081672668457031e+00 1.043470382690429688e+01 7.360081672668457031e+00 -5.565613937377929688e+01 2.171138954162597656e+01 1.043470382690429688e+01 2.171138954162597656e+01 -2.085001754760742188e+01
-4.819758605957031250e+01 -9.910257458686828613e-01 -3.391157150268554688e+00 -9.910257458686828613e-01 -3.157418823242187500e+01 -5.289424657821655273e-01 -3.391157150268554688e+00 -5.289424657821655273e-01 -4.907987594604492188e+01
-2.671816825866699219e+01 2.613731622695922852e+00 -2.652530670166015625e+00 2.613731622695922852e+00 -1.201305675506591797e+01 1.245249843597412109e+01 -2.652530670166015625e+00 1.245249843597412109e+01 -2.973640251159667969e+01
-2.267715072631835938e+01 -3.454474449157714844e+00 -1.402455139160156250e+01 -3.454474449157714844e+00 -1.931146812438964844e+01 -4.321164608001708984e+00 -1.402455139160156250e+01 -4.321164608001708984e+00 1.173130989074707031e+01
-7.936949253082275391e+00 -5.577349185943603516e+00 -6.667430877685546875e+00 -5.577349185943603516e+00 -1.626682472229003906e+01 1.068592357635498047e+01 -6.667430877685546875e+00 1.068592357635498047e+01 -2.511468124389648438e+01
-1.356206321716308594e+01 -2.035827064514160156e+01 1.990515136718750000e+01 -2.035827064514160156e+01 -3.787089538574218750e+01 -3.802969694137573242e+00 1.990515136718750000e+01 -3.802969694137573242e+00 -3.091844177246093750e+01
-8.931741714477539062e+00 1.578700733184814453e+01 -3.913354873657226562e+00 1.578700733184814453e+01 -1.717278671264648438e+01 -7.689182281494140625e+00 -3.913354873657226562e+00 -7.689182281494140625e+00 -3.651028442382812500e+01
-1.527214527130126953e+01 5.820275306701660156e+00 1.413351726531982422e+01 5.820275306701660156e+00 -3.810865783691406250e+01 -5.262682437896728516e+00 1.413351726531982422e+01 -5.262682437896728516e+00 -3.241988754272460938e+01
-3.717292785644531250e+01 1.077559757232666016e+01 4.844659328460693359e+00 1.077559757232666016e+01 -2.261207008361816406e+01 -1.106145954132080078e+01 4.844659328460693359e+00 -1.106145954132080078e+01 -9.742168426513671875e+00
-2.951477622985839844e+01 1.195467281341552734e+01 -9.190327525138854980e-01 1.195467281341552734e+01 -3.000184822082519531e+01 6.387034893035888672e+00 -9.190327525138854980e-01 6.387034893035888672e+00 -3.341211080551147461e+00
-5.814118862152099609e+00 8.650834083557128906e+00 -9.259785413742065430e-01 8.650834083557128906e+00 -3.889277267456054688e+01 4.957965850830078125e+00 -9.259785413742065430e-01 4.957965850830078125e+00 -4.481932640075683594e+00
-5.681721878051757812e+01 1.658401107788085938e+01 -1.385017514228820801e+00 1.658401107788085938e+01 -1.735795021057128906e+01 2.218970775604248047e+00 -1.385017514228820801e+00 2.218970775604248047e+00 -3.116064834594726562e+01
-3.998835754394531250e+01 -1.033547687530517578e+01 -1.483203506469726562e+01 -1.033547687530517578e+01 -1.897611427307128906e+01 -6.848728656768798828e+00 -1.483203506469726562e+01 -6.848728656768798828e+00 -1.112237644195556641e+01
-7.169166564941406250e+01 4.090832710266113281e+00 2.350355148315429688e+01 4.090832710266113281e+00 -4.840733337402343750e+01 9.867852210998535156e+00 2.350355148315429688e+01 9.867852210998535156e+00 -2.294560432434082031e+01
-3.034092330932617188e+01 -3.297029495239257812e+00 -1.340885996818542480e+00 -3.297029495239257812e+00 -3.694741439819335938e+01 -2.423095703125000000e+00 -1.340885996818542480e+00 -2.423095703125000000e+00 -5.715861129760742188e+01
-1.833058166503906250e+01 3.440720736980438232e-01 -4.909961521625518799e-01 3.440720736980438232e-01 1.126376509666442871e+00 1.043638944625854492e+00 -4.909961521625518799e-01 1.043638944625854492e+00 7.165219306945800781e+00
4.040041863918304443e-01 -2.687729358673095703e+00 5.106980800628662109e-01 -2.687729358673095703e+00 -1.344844913482666016e+01 -2.003480148315429688e+01 5.106980800628662109e-01 -2.003480148315429688e+01 -1.650940513610839844e+01
-4.276459884643554688e+01 -1.238232803344726562e+01 6.454182624816894531e+00 -1.238232803344726562e+01 -2.081327629089355469e+01 -1.192360594868659973e-01 6.454182624816894531e+00 -1.192360594868659973e-01 -5.239490127563476562e+01
-6.397483444213867188e+01 1.167530441284179688e+01 -2.906607627868652344e+00 1.167530441284179688e+01 -6.139783859252929688e+01 -2.956583797931671143e-01 -2.906607627868652344e+00 -2.956583797931671143e-01 -4.038820266723632812e+01
-2.190132141113281250e+01 -1.443360710144042969e+01 9.514169692993164062e+00 -1.443360710144042969e+01 -2.186511039733886719e+01 -2.456124496459960938e+01 9.514169692993164062e+00 -2.456124496459960938e+01 -1.940196609497070312e+01
-9.132267951965332031e+00 1.027210140228271484e+01 -1.577540969848632812e+01 1.027210140228271484e+01 -2.362771987915039062e+01 -1.872418975830078125e+01 -1.577540969848632812e+01 -1.872418975830078125e+01 -2.392599487304687500e+01
-1.749546241760253906e+01 1.282799243927001953e+01 1.168157386779785156e+01 1.282799243927001953e+01 6.087149620056152344e+00 2.465843677520751953e+00 1.168157386779785156e+01 2.465843677520751953e+00 -1.661498069763183594e+01
-3.029855155944824219e+01 -2.522088241577148438e+01 -8.576678276062011719e+00 -2.522088241577148438e+01 -1.110241794586181641e+01 -1.990145301818847656e+01 -8.576678276062011719e+00 -1.990145301818847656e+01 -2.388053512573242188e+01
-3.850933074951171875e+01 1.036274528503417969e+01 -1.075916862487792969e+01 1.036274528503417969e+01 -4.649316024780273438e+01 -5.522289752960205078e+00 -1.075916862487792969e+01 -5.522289752960205078e+00 -5.075129699707031250e+01
-1.369482898712158203e+01 -1.018478298187255859e+01 -1.324672222137451172e+01 -1.018478298187255859e+01 -1.700981140136718750e+01 -9.159060478210449219e+00 -1.324672222137451172e+01 -9.159060478210449219e+00 -2.424545478820800781e+01
-2.015706253051757812e+01 -8.222701072692871094e+00 -4.306126594543457031e+00 -8.222701072692871094e+00 -2.740662765502929688e+01 1.266907691955566406e+01 -4.306126594543457031e+00 1.266907691955566406e+01 -2.972627580165863037e-01
-5.062802124023437500e+01 7.755849361419677734e-01 2.148300552368164062e+01 7.755849361419677734e-01 -1.775485992431640625e+01 1.688754844665527344e+01 2.148300552368164062e+01 1.688754844665527344e+01 7.477846145629882812e-01
-3.604946136474609375e+01 -1.378440952301025391e+01 -2.312501907348632812e+01 -1.378440952301025391e+01 -3.560896682739257812e+01 -7.206615924835205078e+00 -2.312501907348632812e+01 -7.206615924835205078e+00 -6.486217498779296875e+01
-1.085296344757080078e+01 -9.050474166870117188e+00 3.543373584747314453e+00 -9.050474166870117188e+00 -1.353317356109619141e+01 -1.264963626861572266e+01 3.543373584747314453e+00 -1.264963626861572266e+01 -2.626459312438964844e+01
2.031029319763183594e+01 -9.176110267639160156e+00 -5.218846797943115234e+00 -9.176110267639160156e+00 -2.980899238586425781e+01 -6.686542510986328125e+00 -5.218846797943115234e+00 -6.686542510986328125e+00 -3.128597450256347656e+01
1.415840029716491699e+00 -8.072873353958129883e-01 -1.122547340393066406e+01 -8.072873353958129883e-01 -2.063971757888793945e+00 -1.173004817962646484e+01 -1.122547340393066406e+01 -1.173004817962646484e+01 -1.056285190582275391e+01
-6.028060150146484375e+01 2.131112515926361084e-01 -1.170320606231689453e+01 2.131112515926361084e-01 -4.141095352172851562e+01 -1.426716136932373047e+01 -1.170320606231689453e+01 -1.426716136932373047e+01 -3.418095779418945312e+01
-3.419868087768554688e+01 2.282487487792968750e+01 -7.396614074707031250e+00 2.282487487792968750e+01 -3.577410125732421875e+01 6.273167610168457031e+00 -7.396614074707031250e+00 6.273167610168457031e+00 1.701800107955932617e+00
-4.789268112182617188e+01 -4.753597259521484375e+00 1.183453798294067383e+00 -4.753597259521484375e+00 -4.481561279296875000e+01 1.285704994201660156e+01 1.183453798294067383e+00 1.285704994201660156e+01 -1.024155902862548828e+01
-2.768565750122070312e+01 -4.693860530853271484e+00 -1.519193840026855469e+01 -4.693860530853271484e+00 -1.935420799255371094e+01 -8.753190994262695312e+00 -1.519193840026855469e+01 -8.753190994262695312e+00 -1.794083404541015625e+01
-6.211498260498046875e+00 -1.804264068603515625e+01 -3.227925300598144531e+00 -1.804264068603515625e+01 -1.093279170989990234e+01 1.700578117370605469e+01 -3.227925300598144531e+00 1.700578117370605469e+01 -3.920768499374389648e+00
-2.105282211303710938e+01 -1.366404533386230469e+01 1.310984420776367188e+01 -1.366404533386230469e+01 -1.522623538970947266e+01 -5.973392009735107422e+00 1.310984420776367188e+01 -5.973392009735107422e+00 -4.904636383056640625e+01
-1.200789356231689453e+01 -5.883275032043457031e+00 3.013109683990478516e+00 -5.883275032043457031e+00 -1.516478824615478516e+01 -1.017068576812744141e+01 3.013109683990478516e+00 -1.017068576812744141e+01 -1.622799110412597656e+01
-3.095133209228515625e+01 8.572209358215332031e+00 -1.129731750488281250e+01 8.572209358215332031e+00 -2.475497817993164062e+01 -1.220684289932250977e+00 -1.129731750488281250e+01 -1.220684289932250977e+00 -1.801686668395996094e+01
-3.206221008300781250e+01 -1.257892894744873047e+01 -1.695481872558593750e+01 -1.257892894744873047e+01 -1.241911125183105469e+01 2.645499229431152344e+00 -1.695481872558593750e+01 2.645499229431152344e+00 -1.123621749877929688e+01
-1.064765930175781250e+01 3.791893005371093750e+00 5.410755157470703125e+00 3.791893005371093750e+00 -5.960507869720458984e+00 1.606038689613342285e+00 5.410755157470703125e+00 1.606038689613342285e+00 8.474193215370178223e-01
-2.566847991943359375e+01 -5.371032714843750000e+00 1.181997585296630859e+01 -5.371032714843750000e+00 -1.593347835540771484e+01 1.458357453346252441e+00 1.181997585296630859e+01 1.458357453346252441e+00 -2.860394001007080078e+00
-1.326941776275634766e+01 7.668640136718750000e+00 7.175742149353027344e+00 7.668640136718750000e+00 -1.283143615722656250e+01 -8.805696487426757812e+00 7.175742149353027344e+00 -8.805696487426757812e+00 -2.671336555480957031e+01
-4.703683471679687500e+01 -1.384949493408203125e+01 -4.560863375663757324e-01 -1.384949493408203125e+01 -3.465926742553710938e+01 -8.620675086975097656e+00 -4.560863375663757324e-01 -8.620675086975097656e+00 -5.182984542846679688e+01
-1.891254997253417969e+01 1.375326824188232422e+01 1.145117759704589844e+01 1.375326824188232422e+01 -1.707894706726074219e+01 -1.511436700820922852e+00 1.145117759704589844e+01 -1.511436700820922852e+00 -1.692075920104980469e+01
-3.822615051269531250e+01 -7.737976074218750000e+00 3.466442823410034180e+00 -7.737976074218750000e+00 -3.577052307128906250e+01 1.630004882812500000e+01 3.466442823410034180e+00 1.630004882812500000e+01 -3.386506652832031250e+01
-5.046770095825195312e+01 3.262526035308837891e+00 -1.656462097167968750e+01 3.262526035308837891e+00 -3.259849166870117188e+01 -5.361039161682128906e+00 -1.656462097167968750e+01 -5.361039161682128906e+00 -6.346183395385742188e+01
-9.997979164123535156e+00 1.110634326934814453e+01 4.071429729461669922e+00 1.110634326934814453e+01 9.147150993347167969e+00 -7.736511230468750000e+00 4.071429729461669922e+00 -7.736511230468750000e+00 1.092613029479980469e+01
-4.037411117553710938e+01 -2.442567110061645508e+00 2.743073463439941406e+00 -2.442567110061645508e+00 -4.299420928955078125e+01 -1.806140661239624023e+00 2.743073463439941406e+00 -1.806140661239624023e+00 -6.115156936645507812e+01
-1.292287635803222656e+01 5.940213680267333984e+00 -8.484679222106933594e+00 5.940213680267333984e+00 -1.426645851135253906e+01 -6.420975208282470703e+00 -8.484679222106933594e+00 -6.420975208282470703e+00 -3.336206817626953125e+01
-3.032663345336914062e+01 3.110041618347167969e+00 -6.731832027435302734e-01 3.110041618347167969e+00 -3.056324005126953125e+01 8.574312925338745117e-01 -6.731832027435302734e-01 8.574312925338745117e-01 -5.576721954345703125e+01
-4.592023086547851562e+01 4.390445232391357422e+00 7.031120777130126953e+00 4.390445232391357422e+00 -4.537662506103515625e+01 4.866058349609375000e+00 7.031120777130126953e+00 4.866058349609375000e+00 -2.488907432556152344e+01
-1.280392837524414062e+01 -6.247898101806640625e+00 -1.115505886077880859e+01 -6.247898101806640625e+00 -1.176520061492919922e+01 1.489313316345214844e+01 -1.115505886077880859e+01 1.489313316345214844e+01 -2.225901603698730469e+01
-3.257349395751953125e+01 3.544677281752228737e-03 1.007323646545410156e+01 3.544677281752228737e-03 -2.142690277099609375e+01 -1.666031074523925781e+01 1.007323646545410156e+01 -1.666031074523925781e+01 -4.029639816284179688e+01
-5.697270393371582031e+00 3.123505592346191406e+00 -3.999829769134521484e+00 3.123505592346191406e+00 -5.035186004638671875e+01 -4.185207366943359375e+00 -3.999829769134521484e+00 -4.185207366943359375e+00 -1.814518737792968750e+01
-1.454996776580810547e+01 -3.270803689956665039e+00 1.329570651054382324e+00 -3.270803689956665039e+00 -2.599868774414062500e+01 1.501236629486083984e+01 1.329570651054382324e+00 1.501236629486083984e+01 -2.801995658874511719e+01