-6.244278906250000000e+04
-6.242788281250000000e+04
-6.242500390625000000e+04
-6.242382812500000000e+04
-6.242473046875000000e+04
-6.242619531250000000e+04
-6.242122265625000000e+04
-6.242644140625000000e+04
-6.242594531250000000e+04
-6.242385156250000000e+04
-6.242293750000000000e+04
-6.242391796875000000e+04
-6.242572656250000000e+04
-6.242593750000000000e+04
-6.242516015625000000e+04
-6.242475390625000000e+04
-6.242521093750000000e+04
-6.242553906250000000e+04
-6.242488281250000000e+04
-6.242458203125000000e+04
-6.242558593750000000e+04
-6.242444921875000000e+04
-6.242487890625000000e+04
-6.242489453125000000e+04
-6.242462109375000000e+04
-6.242352734375000000e+04
-6.242317187500000000e+04
-6.242351953125000000e+04
-6.242210156250000000e+04
-6.242251953125000000e+04
-6.242469921875000000e+04
-6.242489062500000000e+04
-6.242385546875000000e+04
-6.242347265625000000e+04
-6.242267578125000000e+04
-6.242350390625000000e+04
-6.242406640625000000e+04
-6.242478906250000000e+04
-6.242612109375000000e+04
-6.242393359375000000e+04
-6.242270703125000000e+04
-6.242420703125000000e+04
-6.242464453125000000e+04
-6.242443359375000000e+04
-6.244278906250000000e+04
-6.242180859375000000e+04
-6.241965625000000000e+04
-6.241391015625000000e+04
-6.241274218750000000e+04
-6.241002734375000000e+04
-6.240805078125000000e+04
-6.240876171875000000e+04
-6.241006640625000000e+04
-6.240941015625000000e+04
-6.241189062500000000e+04
-6.240885937500000000e+04
-6.240789062500000000e+04
-6.240699609375000000e+04
-6.240508984375000000e+04
-6.240720312500000000e+04
-6.241101953125000000e+04
-6.241113671875000000e+04
-6.240634765625000000e+04
-6.240683203125000000e+04
-6.240653906250000000e+04
-6.240753515625000000e+04
-6.240838281250000000e+04
-6.240975390625000000e+04
-6.240681250000000000e+04
-6.240788281250000000e+04
-6.240757421875000000e+04
-6.240819921875000000e+04
-6.240901562500000000e+04
-6.240851562500000000e+04
-6.240821484375000000e+04
-6.240976953125000000e+04
-6.240980078125000000e+04
-6.240910937500000000e+04
-6.240870703125000000e+04
-6.240667968750000000e+04
-6.240840625000000000e+04
-6.240893359375000000e+04
-6.240899609375000000e+04
-6.240883984375000000e+04
-6.240729687500000000e+04
-6.240846093750000000e+04
-6.240723828125000000e+04
-6.241099609375000000e+04
-6.241222656250000000e+04
-6.240793359375000000e+04
-6.240775000000000000e+04
-6.240764062500000000e+04
-6.240944531250000000e+04
-6.244278906250000000e+04
-6.241539453125000000e+04
-6.241174609375000000e+04
-6.240491406250000000e+04
-6.239543750000000000e+04
-6.239291015625000000e+04
-6.238642578125000000e+04
-6.238983203125000000e+04
-6.238926953125000000e+04
-6.239243359375000000e+04
-6.239250000000000000e+04
-6.239066015625000000e+04
-6.238950000000000000e+04
-6.238811718750000000e+04
-6.238801171875000000e+04
-6.238608203125000000e+04
-6.238742187500000000e+04
-6.238269531250000000e+04
-6.238671484375000000e+04
-6.238629687500000000e+04
-6.238667968750000000e+04
-6.238656250000000000e+04
-6.238343750000000000e+04
-6.238514062500000000e+04
-6.238565625000000000e+04
-6.238144921875000000e+04
-6.238491406250000000e+04
-6.238507031250000000e+04
-6.238463671875000000e+04
-6.238833203125000000e+04
-6.238523828125000000e+04
-6.238633203125000000e+04
-6.238620703125000000e+04
-6.239192578125000000e+04
-6.239200390625000000e+04
-6.238767578125000000e+04
-6.238354296875000000e+04
-6.238392187500000000e+04
-6.238400000000000000e+04
-6.238008984375000000e+04
-6.238136328125000000e+04
-6.238320703125000000e+04
-6.238565625000000000e+04
-6.238397656250000000e+04
-6.244216406250000000e+04
-6.242955859375000000e+04
-6.242788281250000000e+04
-6.242525390625000000e+04
-6.242461718750000000e+04
-6.242632812500000000e+04
-6.242651562500000000e+04
-6.242624609375000000e+04
-6.242702734375000000e+04
-6.242567187500000000e+04
-6.242453906250000000e+04
-6.242818359375000000e+04
-6.242607421875000000e+04
-6.242682031250000000e+04
-6.242533984375000000e+04
-6.242621093750000000e+04
-6.242696093750000000e+04
-6.242666015625000000e+04
-6.242625390625000000e+04
-6.242676562500000000e+04
-6.242522656250000000e+04
-6.242681640625000000e+04
-6.242717968750000000e+04
-6.242602734375000000e+04
-6.242665625000000000e+04
-6.242526562500000000e+04
-6.242609375000000000e+04
-6.242720312500000000e+04
-6.242712109375000000e+04
-6.242628125000000000e+04
-6.242707031250000000e+04
-6.242596093750000000e+04
-6.242657031250000000e+04
-6.242645703125000000e+04
-6.242557031250000000e+04
-6.242490234375000000e+04
-6.242538671875000000e+04
-6.242684375000000000e+04
-6.242658984375000000e+04
-6.242576171875000000e+04
-6.242516796875000000e+04
-6.242473828125000000e+04
-6.242460156250000000e+04
-6.242447656250000000e+04
-6.242626562500000000e+04
-6.242568750000000000e+04
-6.242559375000000000e+04
-6.242433203125000000e+04
-6.244216406250000000e+04
-6.242319140625000000e+04
-6.241969140625000000e+04
-6.241547656250000000e+04
-6.241213671875000000e+04
-6.240704296875000000e+04
-6.240547265625000000e+04
-6.240895312500000000e+04
-6.241233984375000000e+04
-6.241105468750000000e+04
-6.240944140625000000e+04
-6.240732421875000000e+04
-6.240803125000000000e+04
-6.240667968750000000e+04
-6.241012500000000000e+04
-6.240970312500000000e+04
-6.240913671875000000e+04
-6.241031250000000000e+04
-6.240960156250000000e+04
-6.240750781250000000e+04
-6.241112109375000000e+04
-6.240466406250000000e+04
-6.240727343750000000e+04
-6.240941015625000000e+04
-6.240864062500000000e+04
-6.240596093750000000e+04
-6.240583203125000000e+04
-6.240666796875000000e+04
-6.240862500000000000e+04
-6.240841406250000000e+04
-6.240761718750000000e+04
-6.240714843750000000e+04
-6.240744140625000000e+04
-6.240488281250000000e+04
-6.240723437500000000e+04
-6.240999609375000000e+04
-6.240782421875000000e+04
-6.240941796875000000e+04
-6.240693359375000000e+04
-6.240617187500000000e+04
-6.240587890625000000e+04
-6.240581640625000000e+04
-6.240691796875000000e+04
-6.240866796875000000e+04
-6.240765625000000000e+04
-6.244216406250000000e+04
-6.241286718750000000e+04
-6.240851171875000000e+04
-6.240387109375000000e+04
-6.239854296875000000e+04
-6.238741406250000000e+04
-6.238670703125000000e+04
-6.238519140625000000e+04
-6.238379296875000000e+04
-6.238981250000000000e+04
-6.239079687500000000e+04
-6.239247265625000000e+04
-6.238777343750000000e+04
-6.238537890625000000e+04
-6.238910937500000000e+04
-6.238530468750000000e+04
-6.238667187500000000e+04
-6.238581640625000000e+04
-6.238455468750000000e+04
-6.238533593750000000e+04
-6.238357812500000000e+04
-6.238536328125000000e+04
-6.238670312500000000e+04
-6.238492968750000000e+04
-6.238518359375000000e+04
-6.238781640625000000e+04
-6.238805468750000000e+04
-6.238493750000000000e+04
-6.238154687500000000e+04
-6.238123437500000000e+04
-6.237902343750000000e+04
-6.237926562500000000e+04
-6.238492968750000000e+04
-6.238453515625000000e+04
-6.238514062500000000e+04
-6.238123046875000000e+04
-6.238245312500000000e+04
-6.238319531250000000e+04
-6.238164062500000000e+04
-6.238186328125000000e+04
-6.238567578125000000e+04
-6.238290625000000000e+04
-6.238064843750000000e+04
-6.244164453125000000e+04
-6.243061718750000000e+04
-6.242747265625000000e+04
-6.242624609375000000e+04
-6.242505468750000000e+04
-6.242398046875000000e+04
-6.242451953125000000e+04
-6.242551171875000000e+04
-6.242664843750000000e+04
-6.242621875000000000e+04
-6.242508593750000000e+04
-6.242539453125000000e+04
-6.242553125000000000e+04
-6.242513281250000000e+04
-6.242625000000000000e+04
-6.242480078125000000e+04
-6.242482812500000000e+04
-6.242642968750000000e+04
-6.242682421875000000e+04
-6.242608203125000000e+04
-6.242766796875000000e+04
-6.242426562500000000e+04
-6.242464062500000000e+04
-6.242462109375000000e+04
-6.242599218750000000e+04
-6.242637890625000000e+04
-6.242660546875000000e+04
-6.242635156250000000e+04
-6.242598437500000000e+04
-6.242666015625000000e+04
-6.242682031250000000e+04
-6.242629296875000000e+04
-6.242433203125000000e+04
-6.242487109375000000e+04
-6.242502343750000000e+04
-6.242488281250000000e+04
-6.242487109375000000e+04
-6.242598828125000000e+04
-6.242485546875000000e+04
-6.242601171875000000e+04
-6.242711328125000000e+04
-6.242670703125000000e+04
-6.242531250000000000e+04
-6.242567968750000000e+04
-6.242555468750000000e+04
-6.242533203125000000e+04
-6.244164453125000000e+04
-6.242236718750000000e+04
-6.241923437500000000e+04
-6.241507421875000000e+04
-6.241411328125000000e+04
-6.241021093750000000e+04
-6.240706250000000000e+04
-6.241029296875000000e+04
-6.240876953125000000e+04
-6.241441406250000000e+04
-6.241089453125000000e+04
-6.241119921875000000e+04
-6.240969140625000000e+04
-6.240824609375000000e+04
-6.240837109375000000e+04
-6.240970703125000000e+04
-6.241012500000000000e+04
-6.240683984375000000e+04
-6.240352343750000000e+04
-6.240699218750000000e+04
-6.240914843750000000e+04
-6.240887109375000000e+04
-6.240876953125000000e+04
-6.240714843750000000e+04
-6.240703125000000000e+04
-6.240796875000000000e+04
-6.240896875000000000e+04
-6.240648046875000000e+04
-6.240729687500000000e+04
-6.240968750000000000e+04
-6.240763671875000000e+04
-6.240687890625000000e+04
-6.240707031250000000e+04
-6.240751171875000000e+04
-6.240772656250000000e+04
-6.240739062500000000e+04
-6.240764453125000000e+04
-6.240629687500000000e+04
-6.240854687500000000e+04
-6.241103906250000000e+04
-6.240841406250000000e+04
-6.240835156250000000e+04
-6.240750781250000000e+04
-6.240719921875000000e+04
-6.240759765625000000e+04
-6.240711718750000000e+04
-6.240710546875000000e+04
-6.240866015625000000e+04
-6.244164453125000000e+04
-6.241392968750000000e+04
-6.241328125000000000e+04
-6.240166796875000000e+04
-6.239755859375000000e+04
-6.238590234375000000e+04
-6.238606640625000000e+04
-6.238926171875000000e+04
-6.238993359375000000e+04
-6.238908984375000000e+04
-6.238858203125000000e+04
-6.239021484375000000e+04
-6.239170703125000000e+04
-6.238735937500000000e+04
-6.238853906250000000e+04
-6.238877343750000000e+04
-6.238438671875000000e+04
-6.238500781250000000e+04
-6.238430468750000000e+04
-6.238206640625000000e+04
-6.238321875000000000e+04
-6.238485546875000000e+04
-6.238470703125000000e+04
-6.238478515625000000e+04
-6.238414843750000000e+04
-6.238229687500000000e+04
-6.238341015625000000e+04
-6.238307812500000000e+04
-6.238569140625000000e+04
-6.238233593750000000e+04
-6.238437500000000000e+04
-6.238535546875000000e+04
-6.238078125000000000e+04
-6.237955468750000000e+04
-6.238414843750000000e+04
-6.238767968750000000e+04
-6.238347265625000000e+04
-6.238406250000000000e+04
-6.238333593750000000e+04
-6.238289062500000000e+04
-6.244222656250000000e+04
-6.242946093750000000e+04
-6.242739843750000000e+04
-6.242340625000000000e+04
-6.242348828125000000e+04
-6.242706640625000000e+04
-6.242751171875000000e+04
-6.242791406250000000e+04
-6.242615625000000000e+04
-6.242705859375000000e+04
-6.242426562500000000e+04
-6.242385156250000000e+04
-6.242422265625000000e+04
-6.242502734375000000e+04
-6.242593750000000000e+04
-6.242540234375000000e+04
-6.242543750000000000e+04
-6.242594921875000000e+04
-6.242506250000000000e+04
-6.242584375000000000e+04
-6.242439453125000000e+04
-6.242440625000000000e+04
-6.242451171875000000e+04
-6.242398828125000000e+04
-6.242461718750000000e+04
-6.242518750000000000e+04
-6.242599609375000000e+04
-6.242641406250000000e+04
-6.242541015625000000e+04
-6.242549218750000000e+04
-6.242543750000000000e+04
-6.242428906250000000e+04
-6.242545703125000000e+04
-6.242450781250000000e+04
-6.242463281250000000e+04
-6.242389843750000000e+04
-6.242547265625000000e+04
-6.242518359375000000e+04
-6.242566796875000000e+04
-6.242517187500000000e+04
-6.242503515625000000e+04
-6.242395312500000000e+04
-6.242516406250000000e+04
-6.242550000000000000e+04
-6.242497265625000000e+04
-6.242305468750000000e+04
-6.242378515625000000e+04
-6.244222656250000000e+04
-6.242073437500000000e+04
-6.241920703125000000e+04
-6.241415234375000000e+04
-6.241268359375000000e+04
-6.241065625000000000e+04
-6.241041406250000000e+04
-6.240597656250000000e+04
-6.240915234375000000e+04
-6.241138671875000000e+04
-6.240883593750000000e+04
-6.240886328125000000e+04
-6.240901171875000000e+04
-6.240559765625000000e+04
-6.240603906250000000e+04
-6.240771484375000000e+04
-6.240896484375000000e+04
-6.240958984375000000e+04
-6.240792187500000000e+04
-6.240764062500000000e+04
-6.240665234375000000e+04
-6.240876171875000000e+04
-6.240897656250000000e+04
-6.240910546875000000e+04
-6.240483984375000000e+04
-6.240837890625000000e+04
-6.240668359375000000e+04
-6.240675781250000000e+04
-6.240597265625000000e+04
-6.240787890625000000e+04
-6.240330468750000000e+04
-6.240204296875000000e+04
-6.240488281250000000e+04
-6.240561718750000000e+04
-6.240605859375000000e+04
-6.240693750000000000e+04
-6.240735546875000000e+04
-6.240797656250000000e+04
-6.240613281250000000e+04
-6.240753125000000000e+04
-6.240723046875000000e+04
-6.240612109375000000e+04
-6.241433593750000000e+04
-6.241047265625000000e+04
-6.240189453125000000e+04
-6.239754296875000000e+04
-6.239165234375000000e+04
-6.238679296875000000e+04
-6.239027343750000000e+04
-6.239080859375000000e+04
-6.239391796875000000e+04
-6.238829687500000000e+04
-6.238868750000000000e+04
-6.238708984375000000e+04
-6.238596875000000000e+04
-6.238776171875000000e+04
-6.238583984375000000e+04
-6.238958203125000000e+04
-6.238954687500000000e+04
-6.238742578125000000e+04
-6.238462500000000000e+04
-6.238849609375000000e+04
-6.238819921875000000e+04
-6.238874609375000000e+04
-6.238865234375000000e+04
-6.238762109375000000e+04
-6.238375000000000000e+04
-6.238694140625000000e+04
-6.238454296875000000e+04
-6.238798828125000000e+04
-6.238929687500000000e+04
-6.238994921875000000e+04
-6.238941015625000000e+04
-6.238898046875000000e+04
-6.238678515625000000e+04
-6.238473828125000000e+04
-6.238435156250000000e+04
-6.238342187500000000e+04
-6.238257031250000000e+04
-6.238403906250000000e+04
-6.238108984375000000e+04
-6.238354296875000000e+04
-6.238571875000000000e+04
-6.238471484375000000e+04
-6.238632812500000000e+04
-6.238522265625000000e+04
-6.238336328125000000e+04
-6.238245703125000000e+04
-6.244375000000000000e+04
-6.243129687500000000e+04
-6.242878515625000000e+04
-6.242664453125000000e+04
-6.242461328125000000e+04
-6.242596093750000000e+04
-6.242583593750000000e+04
-6.242624218750000000e+04
-6.242483984375000000e+04
-6.242717968750000000e+04
-6.242703125000000000e+04
-6.242662890625000000e+04
-6.242726171875000000e+04
-6.242658203125000000e+04
-6.242669921875000000e+04
-6.242678125000000000e+04
-6.242432031250000000e+04
-6.242541796875000000e+04
-6.242535937500000000e+04
-6.242651953125000000e+04
-6.242607812500000000e+04
-6.242650390625000000e+04
-6.242657031250000000e+04
-6.242589453125000000e+04
-6.242572265625000000e+04
-6.242721093750000000e+04
-6.242707812500000000e+04
-6.242584765625000000e+04
-6.242485937500000000e+04
-6.242625781250000000e+04
-6.242596875000000000e+04
-6.242654296875000000e+04
-6.242575781250000000e+04
-6.242480468750000000e+04
-6.242502343750000000e+04
-6.242537890625000000e+04
-6.242593359375000000e+04
-6.242514062500000000e+04
-6.242603515625000000e+04
-6.242563281250000000e+04
-6.242634375000000000e+04
-6.242488281250000000e+04
-6.242512500000000000e+04
-6.242317968750000000e+04
-6.242459765625000000e+04
-6.242544921875000000e+04
-6.244375000000000000e+04
-6.242186328125000000e+04
-6.242123828125000000e+04
-6.241387890625000000e+04
-6.241394140625000000e+04
-6.240978125000000000e+04
-6.240821875000000000e+04
-6.240865625000000000e+04
-6.241094531250000000e+04
-6.240832812500000000e+04
-6.241076171875000000e+04
-6.241224609375000000e+04
-6.240857031250000000e+04
-6.240752734375000000e+04
-6.240865234375000000e+04
-6.240916796875000000e+04
-6.240968750000000000e+04
-6.241058593750000000e+04
-6.240812890625000000e+04
-6.240566796875000000e+04
-6.240578125000000000e+04
-6.240780859375000000e+04
-6.240903515625000000e+04
-6.240861328125000000e+04
-6.240675390625000000e+04
-6.240820703125000000e+04
-6.240806250000000000e+04
-6.241196093750000000e+04
-6.240845312500000000e+04
-6.240644921875000000e+04
-6.240616015625000000e+04
-6.240367578125000000e+04
-6.240655859375000000e+04
-6.240742187500000000e+04
-6.240848046875000000e+04
-6.240793359375000000e+04
-6.240792187500000000e+04
-6.240925000000000000e+04
-6.240883203125000000e+04
-6.240814843750000000e+04
-6.240643359375000000e+04
-6.240805468750000000e+04
-6.240775781250000000e+04
-6.241013281250000000e+04
-6.240943750000000000e+04
-6.240764843750000000e+04
-6.244375000000000000e+04
-6.241489062500000000e+04
-6.240585937500000000e+04
-6.240058593750000000e+04
-6.239524218750000000e+04
-6.239271875000000000e+04
-6.239052734375000000e+04
-6.238813671875000000e+04
-6.239198828125000000e+04
-6.239216796875000000e+04
-6.238828906250000000e+04
-6.238594140625000000e+04
-6.238460937500000000e+04
-6.238595703125000000e+04
-6.238701171875000000e+04
-6.238858593750000000e+04
-6.238313671875000000e+04
-6.238501953125000000e+04
-6.238465625000000000e+04
-6.238717578125000000e+04
-6.238432421875000000e+04
-6.238287890625000000e+04
-6.238505468750000000e+04
-6.238342187500000000e+04
-6.238552343750000000e+04
-6.238635546875000000e+04
-6.238837500000000000e+04
-6.239026171875000000e+04
-6.238975000000000000e+04
-6.238445312500000000e+04
-6.238137500000000000e+04
-6.238128515625000000e+04
-6.238650390625000000e+04
-6.238653515625000000e+04
-6.238704296875000000e+04
-6.238330859375000000e+04
-6.238167578125000000e+04
-6.237845703125000000e+04
-6.237846875000000000e+04
-6.237736328125000000e+04
-6.238008984375000000e+04
-6.238132031250000000e+04
-6.238041406250000000e+04
-6.238098828125000000e+04
-6.237868750000000000e+04
-6.238267578125000000e+04
-6.244065234375000000e+04
-6.242708984375000000e+04
-6.242446093750000000e+04
-6.242397265625000000e+04
-6.242483984375000000e+04
-6.242514062500000000e+04
-6.242467968750000000e+04
-6.242593750000000000e+04
-6.242504296875000000e+04
-6.242327343750000000e+04
-6.242537890625000000e+04
-6.242664453125000000e+04
-6.242758593750000000e+04
-6.242531640625000000e+04
-6.242562890625000000e+04
-6.242635546875000000e+04
-6.242562890625000000e+04
-6.242509375000000000e+04
-6.242734375000000000e+04
-6.242726562500000000e+04
-6.242658984375000000e+04
-6.242496093750000000e+04
-6.242507421875000000e+04
-6.242417968750000000e+04
-6.242478125000000000e+04
-6.242624218750000000e+04
-6.242567968750000000e+04
-6.242489062500000000e+04
-6.242458984375000000e+04
-6.242446484375000000e+04
-6.242471093750000000e+04
-6.242678906250000000e+04
-6.242598828125000000e+04
-6.242516015625000000e+04
-6.242619921875000000e+04
-6.242493359375000000e+04
-6.242540625000000000e+04
-6.242546093750000000e+04
-6.242415625000000000e+04
-6.242437109375000000e+04
-6.242633984375000000e+04
-6.242610937500000000e+04
-6.242604296875000000e+04
-6.242566406250000000e+04
-6.242531250000000000e+04
-6.244065234375000000e+04
-6.242089843750000000e+04
-6.241778906250000000e+04
-6.241380468750000000e+04
-6.240992187500000000e+04
-6.240924609375000000e+04
-6.240924609375000000e+04
-6.241117968750000000e+04
-6.240906640625000000e+04
-6.241171484375000000e+04
-6.241405468750000000e+04
-6.241350781250000000e+04
-6.241106640625000000e+04
-6.240961328125000000e+04
-6.240992968750000000e+04
-6.240913671875000000e+04
-6.241177734375000000e+04
-6.241102734375000000e+04
-6.240985156250000000e+04
-6.240713671875000000e+04
-6.240549609375000000e+04
-6.240986328125000000e+04
-6.240953515625000000e+04
-6.241015234375000000e+04
-6.240654296875000000e+04
-6.240638281250000000e+04
-6.240777343750000000e+04
-6.240864062500000000e+04
-6.240773046875000000e+04
-6.240716406250000000e+04
-6.240468750000000000e+04
-6.240276953125000000e+04
-6.240571875000000000e+04
-6.240682812500000000e+04
-6.240735546875000000e+04
-6.240890625000000000e+04
-6.241058984375000000e+04
-6.241058203125000000e+04
-6.241000781250000000e+04
-6.240726562500000000e+04
-6.240646093750000000e+04
-6.240744531250000000e+04
-6.240426953125000000e+04
-6.240654687500000000e+04
-6.240785156250000000e+04
-6.240724609375000000e+04
-6.240488671875000000e+04
-6.240670703125000000e+04
-6.241027343750000000e+04
-6.244065234375000000e+04
-6.241321093750000000e+04
-6.241064062500000000e+04
-6.240004296875000000e+04
-6.239919140625000000e+04
-6.239360546875000000e+04
-6.238944140625000000e+04
-6.238580468750000000e+04
-6.238101562500000000e+04
-6.238343750000000000e+04
-6.238387500000000000e+04
-6.238170312500000000e+04
-6.238201953125000000e+04
-6.238202343750000000e+04
-6.238320312500000000e+04
-6.238169921875000000e+04
-6.238495312500000000e+04
-6.238715234375000000e+04
-6.238842578125000000e+04
-6.238869921875000000e+04
-6.238199609375000000e+04
-6.238363671875000000e+04
-6.239002734375000000e+04
-6.239094921875000000e+04
-6.238955468750000000e+04
-6.238933203125000000e+04
-6.238972265625000000e+04
-6.238776953125000000e+04
-6.238702734375000000e+04
-6.238834765625000000e+04
-6.238301171875000000e+04
-6.238574218750000000e+04
-6.238475781250000000e+04
-6.238378906250000000e+04
-6.238105468750000000e+04
-6.238280859375000000e+04
-6.238583593750000000e+04
-6.238661328125000000e+04
-6.238547265625000000e+04
-6.238943750000000000e+04
-6.238736328125000000e+04
-6.238738671875000000e+04
-6.238455859375000000e+04
-6.238328906250000000e+04
-6.238579687500000000e+04
-6.244273046875000000e+04
-6.243101953125000000e+04
-6.242620312500000000e+04
-6.242399218750000000e+04
-6.242573046875000000e+04
-6.242561718750000000e+04
-6.242542187500000000e+04
-6.242546484375000000e+04
-6.242622265625000000e+04
-6.242582812500000000e+04
-6.242486718750000000e+04
-6.242587500000000000e+04
-6.242484375000000000e+04
-6.242501562500000000e+04
-6.242509375000000000e+04
-6.242400781250000000e+04
-6.242413281250000000e+04
-6.242494531250000000e+04
-6.242459375000000000e+04
-6.242614453125000000e+04
-6.242613281250000000e+04
-6.242680078125000000e+04
-6.242476953125000000e+04
-6.242609375000000000e+04
-6.242537500000000000e+04
-6.242651171875000000e+04
-6.242563671875000000e+04
-6.242556250000000000e+04
-6.242539453125000000e+04
-6.242576562500000000e+04
-6.242594921875000000e+04
-6.242580078125000000e+04
-6.242645312500000000e+04
-6.242518359375000000e+04
-6.242603125000000000e+04
-6.242569531250000000e+04
-6.242610546875000000e+04
-6.242643750000000000e+04
-6.242817968750000000e+04
-6.242619921875000000e+04
-6.242689062500000000e+04
-6.242668750000000000e+04
-6.242715234375000000e+04
-6.242767187500000000e+04
-6.242610546875000000e+04
-6.242524218750000000e+04
-6.244273046875000000e+04
-6.242200781250000000e+04
-6.241980078125000000e+04
-6.241512890625000000e+04
-6.241287109375000000e+04
-6.241170703125000000e+04
-6.240836328125000000e+04
-6.240891796875000000e+04
-6.240960156250000000e+04
-6.241096093750000000e+04
-6.241175390625000000e+04
-6.241221875000000000e+04
-6.241208203125000000e+04
-6.241015234375000000e+04
-6.240917578125000000e+04
-6.240887109375000000e+04
-6.240870312500000000e+04
-6.241008203125000000e+04
-6.240787890625000000e+04
-6.240717187500000000e+04
-6.240733593750000000e+04
-6.240785546875000000e+04
-6.240792187500000000e+04
-6.240815234375000000e+04
-6.240865625000000000e+04
-6.241055078125000000e+04
-6.240605468750000000e+04
-6.240612500000000000e+04
-6.240615234375000000e+04
-6.240717968750000000e+04
-6.240851562500000000e+04
-6.240802343750000000e+04
-6.240415234375000000e+04
-6.240305078125000000e+04
-6.240387890625000000e+04
-6.240444140625000000e+04
-6.240477734375000000e+04
-6.240757421875000000e+04
-6.240623046875000000e+04
-6.240479687500000000e+04
-6.240555859375000000e+04
-6.240502343750000000e+04
-6.240653515625000000e+04
-6.240582812500000000e+04
-6.240567578125000000e+04
-6.240776953125000000e+04
-6.240897265625000000e+04
-6.240549609375000000e+04
-6.244273046875000000e+04
-6.241535546875000000e+04
-6.240176562500000000e+04
-6.239792578125000000e+04
-6.239648828125000000e+04
-6.238750390625000000e+04
-6.238817968750000000e+04
-6.238606250000000000e+04
-6.238633593750000000e+04
-6.238812890625000000e+04
-6.238864453125000000e+04
-6.238456640625000000e+04
-6.238251953125000000e+04
-6.238588671875000000e+04
-6.238735546875000000e+04
-6.238981250000000000e+04
-6.238953906250000000e+04
-6.238360546875000000e+04
-6.238354296875000000e+04
-6.238124609375000000e+04
-6.238542578125000000e+04
-6.238509765625000000e+04
-6.238729296875000000e+04
-6.238466406250000000e+04
-6.238544531250000000e+04
-6.238483984375000000e+04
-6.238319531250000000e+04
-6.237999218750000000e+04
-6.238710546875000000e+04
-6.238382421875000000e+04
-6.238450781250000000e+04
-6.238057421875000000e+04
-6.238062890625000000e+04
-6.238497656250000000e+04
-6.238273046875000000e+04
-6.238260546875000000e+04
-6.238361718750000000e+04
-6.238077734375000000e+04
-6.238657421875000000e+04
-6.238616015625000000e+04
-6.238603515625000000e+04
-6.242967578125000000e+04
-6.242808984375000000e+04
-6.242551953125000000e+04
-6.242514843750000000e+04
-6.242501171875000000e+04
-6.242481640625000000e+04
-6.242817968750000000e+04
-6.242767968750000000e+04
-6.242631640625000000e+04
-6.242688281250000000e+04
-6.242599218750000000e+04
-6.242771875000000000e+04
-6.242823828125000000e+04
-6.242678125000000000e+04
-6.242623437500000000e+04
-6.242526171875000000e+04
-6.242598046875000000e+04
-6.242576953125000000e+04
-6.242617578125000000e+04
-6.242624609375000000e+04
-6.242712890625000000e+04
-6.242627734375000000e+04
-6.242630859375000000e+04
-6.242572265625000000e+04
-6.242721875000000000e+04
-6.242630859375000000e+04
-6.242525781250000000e+04
-6.242570312500000000e+04
-6.242417187500000000e+04
-6.242517578125000000e+04
-6.242675000000000000e+04
-6.242654296875000000e+04
-6.242498437500000000e+04
-6.242442187500000000e+04
-6.242619921875000000e+04
-6.242537109375000000e+04
-6.242427734375000000e+04
-6.242612890625000000e+04
-6.242513671875000000e+04
-6.242445312500000000e+04
-6.242632421875000000e+04
-6.242576171875000000e+04
-6.242691015625000000e+04
-6.242786328125000000e+04
-6.242556250000000000e+04
-6.242262109375000000e+04
-6.241804296875000000e+04
-6.241314062500000000e+04
-6.241176171875000000e+04
-6.240967578125000000e+04
-6.240550000000000000e+04
-6.240834765625000000e+04
-6.240957031250000000e+04
-6.241029296875000000e+04
-6.240878515625000000e+04
-6.240793359375000000e+04
-6.241006640625000000e+04
-6.241003906250000000e+04
-6.240970312500000000e+04
-6.240708984375000000e+04
-6.241087109375000000e+04
-6.240831250000000000e+04
-6.240901562500000000e+04
-6.241132421875000000e+04
-6.240975390625000000e+04
-6.240573828125000000e+04
-6.240697265625000000e+04
-6.240737890625000000e+04
-6.241033203125000000e+04
-6.241197656250000000e+04
-6.241280078125000000e+04
-6.240983593750000000e+04
-6.240731250000000000e+04
-6.240596875000000000e+04
-6.240832812500000000e+04
-6.241063281250000000e+04
-6.241162500000000000e+04
-6.241066796875000000e+04
-6.240976953125000000e+04
-6.240658203125000000e+04
-6.240821484375000000e+04
-6.240759765625000000e+04
-6.240883593750000000e+04
-6.240753906250000000e+04
-6.240901171875000000e+04
-6.240678515625000000e+04
-6.240642968750000000e+04
-6.240903515625000000e+04
-6.244137500000000000e+04
-6.241260937500000000e+04
-6.240933984375000000e+04
-6.240308984375000000e+04
-6.239589843750000000e+04
-6.239306640625000000e+04
-6.238715234375000000e+04
-6.238824218750000000e+04
-6.238921484375000000e+04
-6.239321093750000000e+04
-6.238855078125000000e+04
-6.238716796875000000e+04
-6.238368750000000000e+04
-6.238489453125000000e+04
-6.238925000000000000e+04
-6.238346875000000000e+04
-6.238691406250000000e+04
-6.238885546875000000e+04
-6.238832421875000000e+04
-6.238339062500000000e+04
-6.238732031250000000e+04
-6.238814453125000000e+04
-6.238770703125000000e+04
-6.238455468750000000e+04
-6.239005078125000000e+04
-6.238923046875000000e+04
-6.238983203125000000e+04
-6.238831640625000000e+04
-6.238715234375000000e+04
-6.238568750000000000e+04
-6.238465234375000000e+04
-6.238851171875000000e+04
-6.238950000000000000e+04
-6.238898828125000000e+04
-6.239014453125000000e+04
-6.238623437500000000e+04
-6.238474609375000000e+04
-6.238547656250000000e+04
-6.238631640625000000e+04
-6.238833593750000000e+04
-6.238491406250000000e+04
-6.238619140625000000e+04
-6.238556250000000000e+04
-6.238692578125000000e+04
-6.238790234375000000e+04
-6.244227734375000000e+04
-6.242959765625000000e+04
-6.242770312500000000e+04
-6.242482812500000000e+04
-6.242455078125000000e+04
-6.242592968750000000e+04
-6.242614843750000000e+04
-6.242609375000000000e+04
-6.242527343750000000e+04
-6.242449218750000000e+04
-6.242611718750000000e+04
-6.242502343750000000e+04
-6.242578515625000000e+04
-6.242667187500000000e+04
-6.242564843750000000e+04
-6.242580468750000000e+04
-6.242558593750000000e+04
-6.242578125000000000e+04
-6.242681640625000000e+04
-6.242594140625000000e+04
-6.242575390625000000e+04
-6.242568359375000000e+04
-6.242549218750000000e+04
-6.242610546875000000e+04
-6.242588281250000000e+04
-6.242604687500000000e+04
-6.242685546875000000e+04
-6.242638281250000000e+04
-6.242690234375000000e+04
-6.242434765625000000e+04
-6.242491015625000000e+04
-6.242508203125000000e+04
-6.242476171875000000e+04
-6.242682421875000000e+04
-6.242601562500000000e+04
-6.242534375000000000e+04
-6.242594921875000000e+04
-6.242465234375000000e+04
-6.242692187500000000e+04
-6.242615234375000000e+04
-6.242423437500000000e+04
-6.242531250000000000e+04
-6.242595312500000000e+04
-6.242575000000000000e+04
-6.242610156250000000e+04
-6.244227734375000000e+04
-6.242108203125000000e+04
-6.241979687500000000e+04
-6.241175000000000000e+04
-6.240944140625000000e+04
-6.241032031250000000e+04
-6.240786718750000000e+04
-6.240848437500000000e+04
-6.240875390625000000e+04
-6.240778515625000000e+04
-6.240695703125000000e+04
-6.240960546875000000e+04
-6.240895703125000000e+04
-6.240519531250000000e+04
-6.240554687500000000e+04
-6.240627343750000000e+04
-6.240565234375000000e+04
-6.240876171875000000e+04
-6.240849609375000000e+04
-6.240703515625000000e+04
-6.240908984375000000e+04