2.054400062561035156e+01 0.000000000000000000e+00 0.000000000000000000e+00 -2.140000015497207642e-01 2.073299980163574219e+01 0.000000000000000000e+00 -4.289999902248382568e-01 -4.169999957084655762e-01 2.046199989318847656e+01
2.067600059509277344e+01 0.000000000000000000e+00 0.000000000000000000e+00 -2.150000035762786865e-01 2.086599922180175781e+01 0.000000000000000000e+00 -4.309999942779541016e-01 -4.189999997615814209e-01 2.059300041198730469e+01
2.049399948120117188e+01 0.000000000000000000e+00 0.000000000000000000e+00 -2.129999995231628418e-01 2.068199920654296875e+01 0.000000000000000000e+00 -4.280000030994415283e-01 -4.160000085830688477e-01 2.041099929809570312e+01
2.037299919128417969e+01 0.000000000000000000e+00 0.000000000000000000e+00 -2.119999974966049194e-01 2.055999946594238281e+01 0.000000000000000000e+00 -4.250000119209289551e-01 -4.129999876022338867e-01 2.029100036621093750e+01
2.028899955749511719e+01 0.000000000000000000e+00 0.000000000000000000e+00 -2.109999954700469971e-01 2.047599983215332031e+01 0.000000000000000000e+00 -4.230000078678131104e-01 -4.120000004768371582e-01 2.020800018310546875e+01
2.034300041198730469e+01 0.000000000000000000e+00 0.000000000000000000e+00 -2.119999974966049194e-01 2.053000068664550781e+01 0.000000000000000000e+00 -4.239999949932098389e-01 -4.129999876022338867e-01 2.026099967956542969e+01
2.052000045776367188e+01 0.000000000000000000e+00 0.000000000000000000e+00 -2.140000015497207642e-01 2.070899963378906250e+01 0.000000000000000000e+00 -4.280000030994415283e-01 -4.160000085830688477e-01 2.043700027465820312e+01
2.054800033569335938e+01 0.000000000000000000e+00 0.000000000000000000e+00 -2.140000015497207642e-01 2.073600006103515625e+01 0.000000000000000000e+00 -4.289999902248382568e-01 -4.169999957084655762e-01 2.046500015258789062e+01
2.051199913024902344e+01 0.000000000000000000e+00 0.000000000000000000e+00 -2.140000015497207642e-01 2.070100021362304688e+01 0.000000000000000000e+00 -4.280000030994415283e-01 -4.160000085830688477e-01 2.043000030517578125e+01
2.065600013732910156e+01 0.000000000000000000e+00 0.000000000000000000e+00 -2.150000035762786865e-01 2.084499931335449219e+01 0.000000000000000000e+00 -4.309999942779541016e-01 -4.189999997615814209e-01 2.057200050354003906e+01
2.064599990844726562e+01 0.000000000000000000e+00 0.000000000000000000e+00 -2.150000035762786865e-01 2.083600044250488281e+01 0.000000000000000000e+00 -4.309999942779541016e-01 -4.189999997615814209e-01 2.056299972534179688e+01
2.062800025939941406e+01 0.000000000000000000e+00 0.000000000000000000e+00 -2.150000035762786865e-01 2.081800079345703125e+01 0.000000000000000000e+00 -4.300000071525573730e-01 -4.180000126361846924e-01 2.054500007629394531e+01
2.077099990844726562e+01 0.000000000000000000e+00 0.000000000000000000e+00 -2.160000056028366089e-01 2.096199989318847656e+01 0.000000000000000000e+00 -4.329999983310699463e-01 -4.210000038146972656e-01 2.068700027465820312e+01
2.054000091552734375e+01 0.000000000000000000e+00 0.000000000000000000e+00 -2.140000015497207642e-01 2.072800064086914062e+01 0.000000000000000000e+00 -4.289999902248382568e-01 -4.169999957084655762e-01 2.045700073242187500e+01
2.054999923706054688e+01 0.000000000000000000e+00 0.000000000000000000e+00 -2.140000015497207642e-01 2.073800086975097656e+01 0.000000000000000000e+00 -4.289999902248382568e-01 -4.169999957084655762e-01 2.046699905395507812e+01
2.073200035095214844e+01 0.000000000000000000e+00 0.000000000000000000e+00 -2.160000056028366089e-01 2.092200088500976562e+01 0.000000000000000000e+00 -4.329999983310699463e-01 -4.210000038146972656e-01 2.064900016784667969e+01
2.062199974060058594e+01 0.000000000000000000e+00 0.000000000000000000e+00 -2.150000035762786865e-01 2.081200027465820312e+01 0.000000000000000000e+00 -4.300000071525573730e-01 -4.180000126361846924e-01 2.053899955749511719e+01
2.053899955749511719e+01 0.000000000000000000e+00 0.000000000000000000e+00 -2.140000015497207642e-01 2.072800064086914062e+01 0.000000000000000000e+00 -4.289999902248382568e-01 -4.169999957084655762e-01 2.045700073242187500e+01
2.057399940490722656e+01 0.000000000000000000e+00 0.000000000000000000e+00 -2.140000015497207642e-01 2.076300048828125000e+01 0.000000000000000000e+00 -4.289999902248382568e-01 -4.169999957084655762e-01 2.049099922180175781e+01
2.070499992370605469e+01 0.000000000000000000e+00 0.000000000000000000e+00 -2.160000056028366089e-01 2.089599990844726562e+01 0.000000000000000000e+00 -4.320000112056732178e-01 -4.199999868869781494e-01 2.062199974060058594e+01
2.065399932861328125e+01 0.000000000000000000e+00 0.000000000000000000e+00 -2.150000035762786865e-01 2.084300041198730469e+01 0.000000000000000000e+00 -4.309999942779541016e-01 -4.189999997615814209e-01 2.057099914550781250e+01
2.068400001525878906e+01 0.000000000000000000e+00 0.000000000000000000e+00 -2.150000035762786865e-01 2.087400054931640625e+01 0.000000000000000000e+00 -4.320000112056732178e-01 -4.199999868869781494e-01 2.060000038146972656e+01
2.066699981689453125e+01 0.000000000000000000e+00 0.000000000000000000e+00 -2.150000035762786865e-01 2.085700035095214844e+01 0.000000000000000000e+00 -4.309999942779541016e-01 -4.189999997615814209e-01 2.058399963378906250e+01
2.063100051879882812e+01 0.000000000000000000e+00 0.000000000000000000e+00 -2.150000035762786865e-01 2.082099914550781250e+01 0.000000000000000000e+00 -4.300000071525573730e-01 -4.189999997615814209e-01 2.054800033569335938e+01
2.079500007629394531e+01 0.000000000000000000e+00 0.000000000000000000e+00 -2.169999927282333374e-01 2.098600006103515625e+01 0.000000000000000000e+00 -4.339999854564666748e-01 -4.219999909400939941e-01 2.071199989318847656e+01
2.062599945068359375e+01 0.000000000000000000e+00 0.000000000000000000e+00 -2.150000035762786865e-01 2.081599998474121094e+01 0.000000000000000000e+00 -4.300000071525573730e-01 -4.180000126361846924e-01 2.054299926757812500e+01
2.072900009155273438e+01 0.000000000000000000e+00 0.000000000000000000e+00 -2.160000056028366089e-01 2.091900062561035156e+01 0.000000000000000000e+00 -4.320000112056732178e-01 -4.210000038146972656e-01 2.064500045776367188e+01
2.068799972534179688e+01 0.000000000000000000e+00 0.000000000000000000e+00 -2.150000035762786865e-01 2.087800025939941406e+01 0.000000000000000000e+00 -4.320000112056732178e-01 -4.199999868869781494e-01 2.060499954223632812e+01
2.081900024414062500e+01 0.000000000000000000e+00 0.000000000000000000e+00 -2.169999927282333374e-01 2.101099967956542969e+01 0.000000000000000000e+00 -4.339999854564666748e-01 -4.219999909400939941e-01 2.073500061035156250e+01
2.073100090026855469e+01 0.000000000000000000e+00 0.000000000000000000e+00 -2.160000056028366089e-01 2.092099952697753906e+01 0.000000000000000000e+00 -4.320000112056732178e-01 -4.210000038146972656e-01 2.064699935913085938e+01
2.080800056457519531e+01 0.000000000000000000e+00 0.000000000000000000e+00 -2.169999927282333374e-01 2.099900054931640625e+01 0.000000000000000000e+00 -4.339999854564666748e-01 -4.219999909400939941e-01 2.072400093078613281e+01
2.071699905395507812e+01 0.000000000000000000e+00 0.000000000000000000e+00 -2.160000056028366089e-01 2.090699958801269531e+01 0.000000000000000000e+00 -4.320000112056732178e-01 -4.199999868869781494e-01 2.063400077819824219e+01
2.074799919128417969e+01 0.000000000000000000e+00 0.000000000000000000e+00 -2.160000056028366089e-01 2.093899917602539062e+01 0.000000000000000000e+00 -4.329999983310699463e-01 -4.210000038146972656e-01 2.066399955749511719e+01
2.087100028991699219e+01 0.000000000000000000e+00 0.000000000000000000e+00 -2.169999927282333374e-01 2.106200027465820312e+01 0.000000000000000000e+00 -4.350000023841857910e-01 -4.230000078678131104e-01 2.078700065612792969e+01
1.988800048828125000e+01 0.000000000000000000e+00 0.000000000000000000e+00 -2.070000022649765015e-01 2.006999969482421875e+01 0.000000000000000000e+00 -4.149999916553497314e-01 -4.029999971389770508e-01 1.980800056457519531e+01
2.037599945068359375e+01 0.000000000000000000e+00 0.000000000000000000e+00 -2.119999974966049194e-01 2.056299972534179688e+01 0.000000000000000000e+00 -4.250000119209289551e-01 -4.129999876022338867e-01 2.029400062561035156e+01
2.050900077819824219e+01 0.000000000000000000e+00 0.000000000000000000e+00 -2.140000015497207642e-01 2.069799995422363281e+01 0.000000000000000000e+00 -4.280000030994415283e-01 -4.160000085830688477e-01 2.042700004577636719e+01
2.040200042724609375e+01 0.000000000000000000e+00 0.000000000000000000e+00 -2.119999974966049194e-01 2.058900070190429688e+01 0.000000000000000000e+00 -4.259999990463256836e-01 -4.140000045299530029e-01 2.031999969482421875e+01
2.075699996948242188e+01 0.000000000000000000e+00 0.000000000000000000e+00 -2.160000056028366089e-01 2.094799995422363281e+01 0.000000000000000000e+00 -4.329999983310699463e-01 -4.210000038146972656e-01 2.067399978637695312e+01
2.083799934387207031e+01 0.000000000000000000e+00 0.000000000000000000e+00 -2.169999927282333374e-01 2.103000068664550781e+01 0.000000000000000000e+00 -4.350000023841857910e-01 -4.230000078678131104e-01 2.075499916076660156e+01
2.085600090026855469e+01 0.000000000000000000e+00 0.000000000000000000e+00 -2.169999927282333374e-01 2.104800033569335938e+01 0.000000000000000000e+00 -4.350000023841857910e-01 -4.230000078678131104e-01 2.077300071716308594e+01
2.080200004577636719e+01 0.000000000000000000e+00 0.000000000000000000e+00 -2.169999927282333374e-01 2.099300003051757812e+01 0.000000000000000000e+00 -4.339999854564666748e-01 -4.219999909400939941e-01 2.071899986267089844e+01
2.092200088500976562e+01 0.000000000000000000e+00 0.000000000000000000e+00 -2.179999947547912598e-01 2.111400032043457031e+01 0.000000000000000000e+00 -4.359999895095825195e-01 -4.239999949932098389e-01 2.083799934387207031e+01
2.081900024414062500e+01 0.000000000000000000e+00 0.000000000000000000e+00 -2.169999927282333374e-01 2.101000022888183594e+01 0.000000000000000000e+00 -4.339999854564666748e-01 -4.219999909400939941e-01 2.073500061035156250e+01
2.082299995422363281e+01 0.000000000000000000e+00 0.000000000000000000e+00 -2.169999927282333374e-01 2.101399993896484375e+01 0.000000000000000000e+00 -4.339999854564666748e-01 -4.219999909400939941e-01 2.073900032043457031e+01
2.092799949645996094e+01 0.000000000000000000e+00 0.000000000000000000e+00 -2.179999947547912598e-01 2.112000083923339844e+01 0.000000000000000000e+00 -4.370000064373016357e-01 -4.250000119209289551e-01 2.084399986267089844e+01
2.112899971008300781e+01 0.000000000000000000e+00 0.000000000000000000e+00 -2.199999988079071045e-01 2.132299995422363281e+01 0.000000000000000000e+00 -4.410000145435333252e-01 -4.289999902248382568e-01 2.104400062561035156e+01
2.108200073242187500e+01 0.000000000000000000e+00 0.000000000000000000e+00 -2.199999988079071045e-01 2.127599906921386719e+01 0.000000000000000000e+00 -4.399999976158142090e-01 -4.280000030994415283e-01 2.099699974060058594e+01
2.102799987792968750e+01 0.000000000000000000e+00 0.000000000000000000e+00 -2.189999967813491821e-01 2.122200012207031250e+01 0.000000000000000000e+00 -4.390000104904174805e-01 -4.269999861717224121e-01 2.094400024414062500e+01
2.076300048828125000e+01 0.000000000000000000e+00 0.000000000000000000e+00 -2.160000056028366089e-01 2.095400047302246094e+01 0.000000000000000000e+00 -4.329999983310699463e-01 -4.210000038146972656e-01 2.067900085449218750e+01
2.066500091552734375e+01 0.000000000000000000e+00 0.000000000000000000e+00 -2.150000035762786865e-01 2.085499954223632812e+01 0.000000000000000000e+00 -4.309999942779541016e-01 -4.189999997615814209e-01 2.058200073242187500e+01
2.067499923706054688e+01 0.000000000000000000e+00 0.000000000000000000e+00 -2.150000035762786865e-01 2.086499977111816406e+01 0.000000000000000000e+00 -4.309999942779541016e-01 -4.189999997615814209e-01 2.059099960327148438e+01
2.074699974060058594e+01 0.000000000000000000e+00 0.000000000000000000e+00 -2.160000056028366089e-01 2.093799972534179688e+01 0.000000000000000000e+00 -4.329999983310699463e-01 -4.210000038146972656e-01 2.066399955749511719e+01
2.099799919128417969e+01 0.000000000000000000e+00 0.000000000000000000e+00 -2.189999967813491821e-01 2.119099998474121094e+01 0.000000000000000000e+00 -4.379999935626983643e-01 -4.259999990463256836e-01 2.091399955749511719e+01
2.082600021362304688e+01 0.000000000000000000e+00 0.000000000000000000e+00 -2.169999927282333374e-01 2.101799964904785156e+01 0.000000000000000000e+00 -4.339999854564666748e-01 -4.219999909400939941e-01 2.074200057983398438e+01
2.075799942016601562e+01 0.000000000000000000e+00 0.000000000000000000e+00 -2.160000056028366089e-01 2.094899940490722656e+01 0.000000000000000000e+00 -4.329999983310699463e-01 -4.210000038146972656e-01 2.067499923706054688e+01
2.076199913024902344e+01 0.000000000000000000e+00 0.000000000000000000e+00 -2.160000056028366089e-01 2.095299911499023438e+01 0.000000000000000000e+00 -4.329999983310699463e-01 -4.210000038146972656e-01 2.067900085449218750e+01
2.077000045776367188e+01 0.000000000000000000e+00 0.000000000000000000e+00 -2.160000056028366089e-01 2.096100044250488281e+01 0.000000000000000000e+00 -4.329999983310699463e-01 -4.210000038146972656e-01 2.068600082397460938e+01
2.077599906921386719e+01 0.000000000000000000e+00 0.000000000000000000e+00 -2.160000056028366089e-01 2.096699905395507812e+01 0.000000000000000000e+00 -4.329999983310699463e-01 -4.210000038146972656e-01 2.069199943542480469e+01
2.085000038146972656e+01 0.000000000000000000e+00 0.000000000000000000e+00 -2.169999927282333374e-01 2.104199981689453125e+01 0.000000000000000000e+00 -4.350000023841857910e-01 -4.230000078678131104e-01 2.076600074768066406e+01
2.101000022888183594e+01 0.000000000000000000e+00 0.000000000000000000e+00 -2.189999967813491821e-01 2.120299911499023438e+01 0.000000000000000000e+00 -4.379999935626983643e-01 -4.259999990463256836e-01 2.092499923706054688e+01
2.107399940490722656e+01 0.000000000000000000e+00 0.000000000000000000e+00 -2.189999967813491821e-01 2.126799964904785156e+01 0.000000000000000000e+00 -4.399999976158142090e-01 -4.280000030994415283e-01 2.098900032043457031e+01
2.101099967956542969e+01 0.000000000000000000e+00 0.000000000000000000e+00 -2.189999967813491821e-01 2.120400047302246094e+01 0.000000000000000000e+00 -4.379999935626983643e-01 -4.259999990463256836e-01 2.092600059509277344e+01
2.107600021362304688e+01 0.000000000000000000e+00 0.000000000000000000e+00 -2.199999988079071045e-01 2.126899909973144531e+01 0.000000000000000000e+00 -4.399999976158142090e-01 -4.280000030994415283e-01 2.099099922180175781e+01
2.113500022888183594e+01 0.000000000000000000e+00 0.000000000000000000e+00 -2.199999988079071045e-01 2.132900047302246094e+01 0.000000000000000000e+00 -4.410000145435333252e-01 -4.289999902248382568e-01 2.104899978637695312e+01
2.108699989318847656e+01 0.000000000000000000e+00 0.000000000000000000e+00 -2.199999988079071045e-01 2.128100013732910156e+01 0.000000000000000000e+00 -4.399999976158142090e-01 -4.280000030994415283e-01 2.100300025939941406e+01
2.106500053405761719e+01 0.000000000000000000e+00 0.000000000000000000e+00 -2.189999967813491821e-01 2.125900077819824219e+01 0.000000000000000000e+00 -4.390000104904174805e-01 -4.269999861717224121e-01 2.097999954223632812e+01
2.104599952697753906e+01 0.000000000000000000e+00 0.000000000000000000e+00 -2.189999967813491821e-01 2.123900032043457031e+01 0.000000000000000000e+00 -4.390000104904174805e-01 -4.269999861717224121e-01 2.096100044250488281e+01
2.098200035095214844e+01 0.000000000000000000e+00 0.000000000000000000e+00 -2.189999967813491821e-01 2.117399978637695312e+01 0.000000000000000000e+00 -4.379999935626983643e-01 -4.259999990463256836e-01 2.089699935913085938e+01
2.095299911499023438e+01 0.000000000000000000e+00 0.000000000000000000e+00 -2.179999947547912598e-01 2.114599990844726562e+01 0.000000000000000000e+00 -4.370000064373016357e-01 -4.250000119209289551e-01 2.086899948120117188e+01
2.089399909973144531e+01 0.000000000000000000e+00 0.000000000000000000e+00 -2.179999947547912598e-01 2.108600044250488281e+01 0.000000000000000000e+00 -4.359999895095825195e-01 -4.239999949932098389e-01 2.080999946594238281e+01
2.075099945068359375e+01 0.000000000000000000e+00 0.000000000000000000e+00 -2.160000056028366089e-01 2.094199943542480469e+01 0.000000000000000000e+00 -4.329999983310699463e-01 -4.210000038146972656e-01 2.066699981689453125e+01
2.094700050354003906e+01 0.000000000000000000e+00 0.000000000000000000e+00 -2.179999947547912598e-01 2.113899993896484375e+01 0.000000000000000000e+00 -4.370000064373016357e-01 -4.250000119209289551e-01 2.086199951171875000e+01
2.102000045776367188e+01 0.000000000000000000e+00 0.000000000000000000e+00 -2.189999967813491821e-01 2.121299934387207031e+01 0.000000000000000000e+00 -4.390000104904174805e-01 -4.259999990463256836e-01 2.093499946594238281e+01
2.085799980163574219e+01 0.000000000000000000e+00 0.000000000000000000e+00 -2.169999927282333374e-01 2.104999923706054688e+01 0.000000000000000000e+00 -4.350000023841857910e-01 -4.230000078678131104e-01 2.077400016784667969e+01
2.083699989318847656e+01 0.000000000000000000e+00 0.000000000000000000e+00 -2.169999927282333374e-01 2.102799987792968750e+01 0.000000000000000000e+00 -4.350000023841857910e-01 -4.230000078678131104e-01 2.075300025939941406e+01
2.083600044250488281e+01 0.000000000000000000e+00 0.000000000000000000e+00 -2.169999927282333374e-01 2.102799987792968750e+01 0.000000000000000000e+00 -4.350000023841857910e-01 -4.230000078678131104e-01 2.075300025939941406e+01
2.109799957275390625e+01 0.000000000000000000e+00 0.000000000000000000e+00 -2.199999988079071045e-01 2.129199981689453125e+01 0.000000000000000000e+00 -4.399999976158142090e-01 -4.280000030994415283e-01 2.101300048828125000e+01
2.116799926757812500e+01 0.000000000000000000e+00 0.000000000000000000e+00 -2.199999988079071045e-01 2.136199951171875000e+01 0.000000000000000000e+00 -4.420000016689300537e-01 -4.289999902248382568e-01 2.108200073242187500e+01
2.097699928283691406e+01 0.000000000000000000e+00 0.000000000000000000e+00 -2.179999947547912598e-01 2.117000007629394531e+01 0.000000000000000000e+00 -4.379999935626983643e-01 -4.259999990463256836e-01 2.089299964904785156e+01
2.121500015258789062e+01 0.000000000000000000e+00 0.000000000000000000e+00 -2.210000008344650269e-01 2.140999984741210938e+01 0.000000000000000000e+00 -4.429999887943267822e-01 -4.300000071525573730e-01 2.112999916076660156e+01
2.136300086975097656e+01 0.000000000000000000e+00 0.000000000000000000e+00 -2.230000048875808716e-01 2.155900001525878906e+01 0.000000000000000000e+00 -4.460000097751617432e-01 -4.329999983310699463e-01 2.127700042724609375e+01
2.121599960327148438e+01 0.000000000000000000e+00 0.000000000000000000e+00 -2.210000008344650269e-01 2.141099929809570312e+01 0.000000000000000000e+00 -4.429999887943267822e-01 -4.300000071525573730e-01 2.112999916076660156e+01
2.147400093078613281e+01 0.000000000000000000e+00 0.000000000000000000e+00 -2.240000069141387939e-01 2.167099952697753906e+01 0.000000000000000000e+00 -4.480000138282775879e-01 -4.359999895095825195e-01 2.138800048828125000e+01
2.123500061035156250e+01 0.000000000000000000e+00 0.000000000000000000e+00 -2.210000008344650269e-01 2.143000030517578125e+01 0.000000000000000000e+00 -4.429999887943267822e-01 -4.309999942779541016e-01 2.114900016784667969e+01
2.126899909973144531e+01 0.000000000000000000e+00 0.000000000000000000e+00 -2.220000028610229492e-01 2.146400070190429688e+01 0.000000000000000000e+00 -4.440000057220458984e-01 -4.309999942779541016e-01 2.118300056457519531e+01
2.131999969482421875e+01 0.000000000000000000e+00 0.000000000000000000e+00 -2.220000028610229492e-01 2.151600074768066406e+01 0.000000000000000000e+00 -4.449999928474426270e-01 -4.320000112056732178e-01 2.123399925231933594e+01
2.127700042724609375e+01 0.000000000000000000e+00 0.000000000000000000e+00 -2.220000028610229492e-01 2.147200012207031250e+01 0.000000000000000000e+00 -4.440000057220458984e-01 -4.320000112056732178e-01 2.119099998474121094e+01
2.120800018310546875e+01 0.000000000000000000e+00 0.000000000000000000e+00 -2.210000008344650269e-01 2.140299987792968750e+01 0.000000000000000000e+00 -4.420000016689300537e-01 -4.300000071525573730e-01 2.112299919128417969e+01
2.125099945068359375e+01 0.000000000000000000e+00 0.000000000000000000e+00 -2.210000008344650269e-01 2.144700050354003906e+01 0.000000000000000000e+00 -4.429999887943267822e-01 -4.309999942779541016e-01 2.116600036621093750e+01
2.134199905395507812e+01 0.000000000000000000e+00 0.000000000000000000e+00 -2.220000028610229492e-01 2.153800010681152344e+01 0.000000000000000000e+00 -4.449999928474426270e-01 -4.329999983310699463e-01 2.125600051879882812e+01
2.143799972534179688e+01 0.000000000000000000e+00 0.000000000000000000e+00 -2.230000048875808716e-01 2.163500022888183594e+01 0.000000000000000000e+00 -4.469999969005584717e-01 -4.350000023841857910e-01 2.135099983215332031e+01
2.144199943542480469e+01 0.000000000000000000e+00 0.000000000000000000e+00 -2.230000048875808716e-01 2.163899993896484375e+01 0.000000000000000000e+00 -4.469999969005584717e-01 -4.350000023841857910e-01 2.135600090026855469e+01
2.145100021362304688e+01 0.000000000000000000e+00 0.000000000000000000e+00 -2.230000048875808716e-01 2.164800071716308594e+01 0.000000000000000000e+00 -4.480000138282775879e-01 -4.350000023841857910e-01 2.136499977111816406e+01
2.012100028991699219e+01 0.000000000000000000e+00 0.000000000000000000e+00 -2.099999934434890747e-01 2.030599975585937500e+01 0.000000000000000000e+00 -4.199999868869781494e-01 -4.079999923706054688e-01 2.004000091552734375e+01
2.031999969482421875e+01 0.000000000000000000e+00 0.000000000000000000e+00 -2.119999974966049194e-01 2.050699996948242188e+01 0.000000000000000000e+00 -4.239999949932098389e-01 -4.120000004768371582e-01 2.023800086975097656e+01
2.039599990844726562e+01 0.000000000000000000e+00 0.000000000000000000e+00 -2.119999974966049194e-01 2.058300018310546875e+01 0.000000000000000000e+00 -4.259999990463256836e-01 -4.140000045299530029e-01 2.031299972534179688e+01
2.048900032043457031e+01 0.000000000000000000e+00 0.000000000000000000e+00 -2.129999995231628418e-01 2.067700004577636719e+01 0.000000000000000000e+00 -4.269999861717224121e-01 -4.160000085830688477e-01 2.040600013732910156e+01
2.060099983215332031e+01 0.000000000000000000e+00 0.000000000000000000e+00 -2.150000035762786865e-01 2.079000091552734375e+01 0.000000000000000000e+00 -4.300000071525573730e-01 -4.180000126361846924e-01 2.051799964904785156e+01
2.070800018310546875e+01 0.000000000000000000e+00 0.000000000000000000e+00 -2.160000056028366089e-01 2.089800071716308594e+01 0.000000000000000000e+00 -4.320000112056732178e-01 -4.199999868869781494e-01 2.062500000000000000e+01
2.088500022888183594e+01 0.000000000000000000e+00 0.000000000000000000e+00 -2.179999947547912598e-01 2.107699966430664062e+01 0.000000000000000000e+00 -4.359999895095825195e-01 -4.239999949932098389e-01 2.080100059509277344e+01
2.100099945068359375e+01 0.000000000000000000e+00 0.000000000000000000e+00 -2.189999967813491821e-01 2.119400024414062500e+01 0.000000000000000000e+00 -4.379999935626983643e-01 -4.259999990463256836e-01 2.091600036621093750e+01
2.096699905395507812e+01 0.000000000000000000e+00 0.000000000000000000e+00 -2.179999947547912598e-01 2.115999984741210938e+01 0.000000000000000000e+00 -4.370000064373016357e-01 -4.250000119209289551e-01 2.088299942016601562e+01
2.105900001525878906e+01 0.000000000000000000e+00 0.000000000000000000e+00 -2.189999967813491821e-01 2.125200080871582031e+01 0.000000000000000000e+00 -4.390000104904174805e-01 -4.269999861717224121e-01 2.097400093078613281e+01
2.100499916076660156e+01 0.000000000000000000e+00 0.000000000000000000e+00 -2.189999967813491821e-01 2.119799995422363281e+01 0.000000000000000000e+00 -4.379999935626983643e-01 -4.259999990463256836e-01 2.092099952697753906e+01
2.084399986267089844e+01 0.000000000000000000e+00 0.000000000000000000e+00 -2.169999927282333374e-01 2.103499984741210938e+01 0.000000000000000000e+00 -4.350000023841857910e-01 -4.230000078678131104e-01 2.076000022888183594e+01
2.090600013732910156e+01 0.000000000000000000e+00 0.000000000000000000e+00 -2.179999947547912598e-01 2.109799957275390625e+01 0.000000000000000000e+00 -4.359999895095825195e-01 -4.239999949932098389e-01 2.082200050354003906e+01
2.092900085449218750e+01 0.000000000000000000e+00 0.000000000000000000e+00 -2.179999947547912598e-01 2.112100028991699219e+01 0.000000000000000000e+00 -4.370000064373016357e-01 -4.250000119209289551e-01 2.084499931335449219e+01
2.102000045776367188e+01 0.000000000000000000e+00 0.000000000000000000e+00 -2.189999967813491821e-01 2.121299934387207031e+01 0.000000000000000000e+00 -4.390000104904174805e-01 -4.259999990463256836e-01 2.093499946594238281e+01
2.086100006103515625e+01 0.000000000000000000e+00 0.000000000000000000e+00 -2.169999927282333374e-01 2.105299949645996094e+01 0.000000000000000000e+00 -4.350000023841857910e-01 -4.230000078678131104e-01 2.077700042724609375e+01
2.096199989318847656e+01 0.000000000000000000e+00 0.000000000000000000e+00 -2.179999947547912598e-01 2.115399932861328125e+01 0.000000000000000000e+00 -4.370000064373016357e-01 -4.250000119209289551e-01 2.087700080871582031e+01
2.095700073242187500e+01 0.000000000000000000e+00 0.000000000000000000e+00 -2.179999947547912598e-01 2.114900016784667969e+01 0.000000000000000000e+00 -4.370000064373016357e-01 -4.250000119209289551e-01 2.087199974060058594e+01
2.089299964904785156e+01 0.000000000000000000e+00 0.000000000000000000e+00 -2.179999947547912598e-01 2.108499908447265625e+01 0.000000000000000000e+00 -4.359999895095825195e-01 -4.239999949932098389e-01 2.080900001525878906e+01
2.097900009155273438e+01 0.000000000000000000e+00 0.000000000000000000e+00 -2.189999967813491821e-01 2.117200088500976562e+01 0.000000000000000000e+00 -4.379999935626983643e-01 -4.259999990463256836e-01 2.089500045776367188e+01
2.103000068664550781e+01 0.000000000000000000e+00 0.000000000000000000e+00 -2.189999967813491821e-01 2.122400093078613281e+01 0.000000000000000000e+00 -4.390000104904174805e-01 -4.269999861717224121e-01 2.094599914550781250e+01
2.096100044250488281e+01 0.000000000000000000e+00 0.000000000000000000e+00 -2.179999947547912598e-01 2.115399932861328125e+01 0.000000000000000000e+00 -4.370000064373016357e-01 -4.250000119209289551e-01 2.087700080871582031e+01
2.103499984741210938e+01 0.000000000000000000e+00 0.000000000000000000e+00 -2.189999967813491821e-01 2.122800064086914062e+01 0.000000000000000000e+00 -4.390000104904174805e-01 -4.269999861717224121e-01 2.095000076293945312e+01
2.109700012207031250e+01 0.000000000000000000e+00 0.000000000000000000e+00 -2.199999988079071045e-01 2.129000091552734375e+01 0.000000000000000000e+00 -4.399999976158142090e-01 -4.280000030994415283e-01 2.101199913024902344e+01
2.115099906921386719e+01 0.000000000000000000e+00 0.000000000000000000e+00 -2.199999988079071045e-01 2.134499931335449219e+01 0.000000000000000000e+00 -4.410000145435333252e-01 -4.289999902248382568e-01 2.106599998474121094e+01
2.107699966430664062e+01 0.000000000000000000e+00 0.000000000000000000e+00 -2.199999988079071045e-01 2.127000045776367188e+01 0.000000000000000000e+00 -4.399999976158142090e-01 -4.280000030994415283e-01 2.099200057983398438e+01
2.084199905395507812e+01 0.000000000000000000e+00 0.000000000000000000e+00 -2.169999927282333374e-01 2.103300094604492188e+01 0.000000000000000000e+00 -4.350000023841857910e-01 -4.230000078678131104e-01 2.075799942016601562e+01
2.084399986267089844e+01 0.000000000000000000e+00 0.000000000000000000e+00 -2.169999927282333374e-01 2.103499984741210938e+01 0.000000000000000000e+00 -4.350000023841857910e-01 -4.230000078678131104e-01 2.076000022888183594e+01
2.089200019836425781e+01 0.000000000000000000e+00 0.000000000000000000e+00 -2.179999947547912598e-01 2.108399963378906250e+01 0.000000000000000000e+00 -4.359999895095825195e-01 -4.239999949932098389e-01 2.080800056457519531e+01
2.069000053405761719e+01 0.000000000000000000e+00 0.000000000000000000e+00 -2.150000035762786865e-01 2.087999916076660156e+01 0.000000000000000000e+00 -4.320000112056732178e-01 -4.199999868869781494e-01 2.060700035095214844e+01
2.077899932861328125e+01 0.000000000000000000e+00 0.000000000000000000e+00 -2.160000056028366089e-01 2.096999931335449219e+01 0.000000000000000000e+00 -4.339999854564666748e-01 -4.219999909400939941e-01 2.069499969482421875e+01
2.093000030517578125e+01 0.000000000000000000e+00 0.000000000000000000e+00 -2.179999947547912598e-01 2.112199974060058594e+01 0.000000000000000000e+00 -4.370000064373016357e-01 -4.250000119209289551e-01 2.084499931335449219e+01
2.093400001525878906e+01 0.000000000000000000e+00 0.000000000000000000e+00 -2.179999947547912598e-01 2.112599945068359375e+01 0.000000000000000000e+00 -4.370000064373016357e-01 -4.250000119209289551e-01 2.085000038146972656e+01
2.097900009155273438e+01 0.000000000000000000e+00 0.000000000000000000e+00 -2.189999967813491821e-01 2.117200088500976562e+01 0.000000000000000000e+00 -4.379999935626983643e-01 -4.259999990463256836e-01 2.089399909973144531e+01
2.114800071716308594e+01 0.000000000000000000e+00 0.000000000000000000e+00 -2.199999988079071045e-01 2.134199905395507812e+01 0.000000000000000000e+00 -4.410000145435333252e-01 -4.289999902248382568e-01 2.106299972534179688e+01
2.102499961853027344e+01 0.000000000000000000e+00 0.000000000000000000e+00 -2.189999967813491821e-01 2.121800041198730469e+01 0.000000000000000000e+00 -4.390000104904174805e-01 -4.269999861717224121e-01 2.094099998474121094e+01
2.097100067138671875e+01 0.000000000000000000e+00 0.000000000000000000e+00 -2.179999947547912598e-01 2.116399955749511719e+01 0.000000000000000000e+00 -4.379999935626983643e-01 -4.250000119209289551e-01 2.088699913024902344e+01