-6.064382421875000000e+04
-6.064106250000000000e+04
-6.064382031250000000e+04
-6.064514843750000000e+04
-6.064508593750000000e+04
-6.064496484375000000e+04
-6.064509765625000000e+04
-6.064373046875000000e+04
-6.064407031250000000e+04
-6.064430859375000000e+04
-6.064307421875000000e+04
-6.064446484375000000e+04
-6.064171875000000000e+04
-6.064450781250000000e+04
-6.064604296875000000e+04
-6.064395703125000000e+04
-6.064407031250000000e+04
-6.064428906250000000e+04
-6.064562109375000000e+04
-6.064444140625000000e+04
-6.064416015625000000e+04
-6.064543359375000000e+04
-6.064463671875000000e+04
-6.064565234375000000e+04
-6.064549218750000000e+04
-6.064554296875000000e+04
-6.064394140625000000e+04
-6.064273828125000000e+04
-6.064322656250000000e+04
-6.064339062500000000e+04
-6.064387890625000000e+04
-6.064300390625000000e+04
-6.064257812500000000e+04
-6.064251953125000000e+04
-6.064635156250000000e+04
-6.064323828125000000e+04
-6.064080859375000000e+04
-6.064208984375000000e+04
-6.064030859375000000e+04
-6.064086718750000000e+04
-6.064135937500000000e+04
-6.064078125000000000e+04
-6.064041015625000000e+04
-6.064062500000000000e+04
-6.064091015625000000e+04
-6.064200000000000000e+04
-6.063985937500000000e+04
-6.064083203125000000e+04
-6.064021484375000000e+04
-6.064195312500000000e+04
-6.064221484375000000e+04
-6.064259375000000000e+04
-6.064282421875000000e+04
-6.064081640625000000e+04
-6.064241015625000000e+04
-6.064414843750000000e+04
-6.064348046875000000e+04
-6.063051171875000000e+04
-6.062852343750000000e+04
-6.062866406250000000e+04
-6.062585937500000000e+04
-6.062909765625000000e+04
-6.062939843750000000e+04
-6.062694140625000000e+04
-6.062982812500000000e+04
-6.062998046875000000e+04
-6.062932421875000000e+04
-6.063094921875000000e+04
-6.062988671875000000e+04
-6.063062890625000000e+04
-6.063144531250000000e+04
-6.063105078125000000e+04
-6.063093750000000000e+04
-6.063180468750000000e+04
-6.063186328125000000e+04
-6.063346875000000000e+04
-6.063214453125000000e+04
-6.062920703125000000e+04
-6.063348828125000000e+04
-6.063247265625000000e+04
-6.062959375000000000e+04
-6.062981250000000000e+04
-6.062785937500000000e+04
-6.063083593750000000e+04
-6.063350390625000000e+04
-6.063076953125000000e+04
-6.063059375000000000e+04
-6.062853906250000000e+04
-6.062881250000000000e+04
-6.063002343750000000e+04
-6.063001953125000000e+04
-6.062872265625000000e+04
-6.062880468750000000e+04
-6.062565625000000000e+04
-6.063918750000000000e+04
-6.063812500000000000e+04
-6.063658203125000000e+04
-6.063580859375000000e+04
-6.063459765625000000e+04
-6.063430078125000000e+04
-6.063215234375000000e+04
-6.063442578125000000e+04
-6.063275000000000000e+04
-6.063316015625000000e+04
-6.063466406250000000e+04
-6.063508203125000000e+04
-6.063548828125000000e+04
-6.063446093750000000e+04
-6.063359375000000000e+04
-6.063523437500000000e+04
-6.063532421875000000e+04
-6.063376953125000000e+04
-6.063225781250000000e+04
-6.063349218750000000e+04
-6.063435937500000000e+04
-6.063509765625000000e+04
-6.063355078125000000e+04
-6.063333593750000000e+04
-6.063308593750000000e+04
-6.063465625000000000e+04
-6.063423437500000000e+04
-6.063394531250000000e+04
-6.063372265625000000e+04
-6.063498046875000000e+04
-6.063545703125000000e+04
-6.063467187500000000e+04
-6.063301171875000000e+04
-6.063264062500000000e+04
-6.063471484375000000e+04
-6.063473437500000000e+04
-6.063423828125000000e+04
-6.063486328125000000e+04
-6.063466015625000000e+04
-6.063259765625000000e+04
-6.063399609375000000e+04
-6.062921093750000000e+04
-6.062816015625000000e+04
-6.062862890625000000e+04
-6.062530468750000000e+04
-6.062589062500000000e+04
-6.062420703125000000e+04
-6.062254296875000000e+04
-6.062473046875000000e+04
-6.062410546875000000e+04
-6.062373437500000000e+04
-6.062638671875000000e+04
-6.062679687500000000e+04
-6.062549609375000000e+04
-6.062278125000000000e+04
-6.062458203125000000e+04
-6.062428515625000000e+04
-6.062455078125000000e+04
-6.062446093750000000e+04
-6.062740625000000000e+04
-6.062729687500000000e+04
-6.062834765625000000e+04
-6.062478906250000000e+04
-6.062842187500000000e+04
-6.062613671875000000e+04
-6.062828515625000000e+04
-6.062532031250000000e+04
-6.062585546875000000e+04
-6.062460156250000000e+04
-6.062661328125000000e+04
-6.062508203125000000e+04
-6.062662500000000000e+04
-6.062735546875000000e+04
-6.062619531250000000e+04
-6.062766406250000000e+04
-6.062676171875000000e+04
-6.062518359375000000e+04
-6.062514453125000000e+04
-6.062239843750000000e+04
-6.062644140625000000e+04
-6.062794531250000000e+04
-6.062779296875000000e+04
-6.062680859375000000e+04
-6.062540234375000000e+04
-6.063108984375000000e+04
-6.063073046875000000e+04
-6.062888671875000000e+04
-6.063051953125000000e+04
-6.062680078125000000e+04
-6.062580859375000000e+04
-6.062901171875000000e+04
-6.062986718750000000e+04
-6.063187890625000000e+04
-6.063101171875000000e+04
-6.062767187500000000e+04
-6.062783203125000000e+04
-6.062858593750000000e+04
-6.062850000000000000e+04
-6.063113671875000000e+04
-6.063007421875000000e+04
-6.062728515625000000e+04
-6.062814843750000000e+04
-6.062588671875000000e+04
-6.062736328125000000e+04
-6.062616406250000000e+04
-6.062515234375000000e+04
-6.062545312500000000e+04
-6.062521093750000000e+04
-6.062863671875000000e+04
-6.062777343750000000e+04
-6.062841406250000000e+04
-6.062469140625000000e+04
-6.062439062500000000e+04
-6.062598046875000000e+04
-6.062280078125000000e+04
-6.062445312500000000e+04
-6.062555468750000000e+04
-6.062622656250000000e+04
-6.062462890625000000e+04
-6.062497265625000000e+04
-6.062852734375000000e+04
-6.062799609375000000e+04
-6.062806640625000000e+04
-6.062687500000000000e+04
-6.062671093750000000e+04
-6.062645703125000000e+04
-6.064439453125000000e+04
-6.064311718750000000e+04
-6.064158593750000000e+04
-6.064062109375000000e+04
-6.064049609375000000e+04
-6.063973828125000000e+04
-6.064390625000000000e+04
-6.064330078125000000e+04
-6.064499218750000000e+04
-6.064602734375000000e+04
-6.064433203125000000e+04
-6.064260937500000000e+04
-6.064153125000000000e+04
-6.064431640625000000e+04
-6.064460156250000000e+04
-6.064425390625000000e+04
-6.064672265625000000e+04
-6.064770703125000000e+04
-6.064576953125000000e+04
-6.064575390625000000e+04
-6.064512890625000000e+04
-6.064372656250000000e+04
-6.064867187500000000e+04
-6.064794140625000000e+04
-6.064628906250000000e+04
-6.064286328125000000e+04
-6.064558203125000000e+04
-6.064449609375000000e+04
-6.064572265625000000e+04
-6.064428515625000000e+04
-6.064085546875000000e+04
-6.064265625000000000e+04
-6.064250000000000000e+04
-6.064197265625000000e+04
-6.064303125000000000e+04
-6.064346484375000000e+04
-6.064441406250000000e+04
-6.064455859375000000e+04
-6.064387500000000000e+04
-6.064542578125000000e+04
-6.064363281250000000e+04
-6.064304296875000000e+04
-6.064433593750000000e+04
-6.064660937500000000e+04
-6.063837500000000000e+04
-6.063523828125000000e+04
-6.063125781250000000e+04
-6.063132421875000000e+04
-6.063126953125000000e+04
-6.063185937500000000e+04
-6.063017968750000000e+04
-6.063281250000000000e+04
-6.063367578125000000e+04
-6.063050781250000000e+04
-6.063141015625000000e+04
-6.063052734375000000e+04
-6.063441796875000000e+04
-6.063316796875000000e+04
-6.063272265625000000e+04
-6.063011718750000000e+04
-6.062922265625000000e+04
-6.063207421875000000e+04
-6.063338281250000000e+04
-6.063219921875000000e+04
-6.062962109375000000e+04
-6.063143750000000000e+04
-6.063392187500000000e+04
-6.063284765625000000e+04
-6.063423828125000000e+04
-6.063236328125000000e+04
-6.063191015625000000e+04
-6.062831640625000000e+04
-6.063129296875000000e+04
-6.063012500000000000e+04
-6.062916796875000000e+04
-6.063349609375000000e+04
-6.063278515625000000e+04
-6.063264843750000000e+04
-6.062833593750000000e+04
-6.062823437500000000e+04
-6.063608984375000000e+04
-6.063503125000000000e+04
-6.063630468750000000e+04
-6.063610937500000000e+04
-6.063720312500000000e+04
-6.063662109375000000e+04
-6.063353906250000000e+04
-6.063291015625000000e+04
-6.063429296875000000e+04
-6.063660937500000000e+04
-6.063666796875000000e+04
-6.063803515625000000e+04
-6.063652734375000000e+04
-6.063498828125000000e+04
-6.063719921875000000e+04
-6.063630859375000000e+04
-6.063609375000000000e+04
-6.063531250000000000e+04
-6.063366796875000000e+04
-6.063488671875000000e+04
-6.063531250000000000e+04
-6.063730468750000000e+04
-6.063475390625000000e+04
-6.063614453125000000e+04
-6.063628906250000000e+04
-6.063507421875000000e+04
-6.063641015625000000e+04
-6.063514843750000000e+04
-6.063575390625000000e+04
-6.063671093750000000e+04
-6.063666015625000000e+04
-6.063719921875000000e+04
-6.063830468750000000e+04
-6.063957031250000000e+04
-6.063833593750000000e+04
-6.063692187500000000e+04
-6.063613671875000000e+04
-6.063200390625000000e+04
-6.062978906250000000e+04
-6.062376953125000000e+04
-6.062187109375000000e+04
-6.062421093750000000e+04
-6.062364062500000000e+04
-6.062360546875000000e+04
-6.062605859375000000e+04
-6.062587500000000000e+04
-6.062445703125000000e+04
-6.062493750000000000e+04
-6.062598437500000000e+04
-6.062834765625000000e+04
-6.062530859375000000e+04
-6.062480078125000000e+04
-6.062508593750000000e+04
-6.062244531250000000e+04
-6.062741015625000000e+04
-6.062916796875000000e+04
-6.063077734375000000e+04
-6.062876953125000000e+04
-6.062831250000000000e+04
-6.062907421875000000e+04
-6.062380078125000000e+04
-6.062257031250000000e+04
-6.062500390625000000e+04
-6.062106640625000000e+04
-6.062387109375000000e+04
-6.062539453125000000e+04
-6.062394531250000000e+04
-6.062232031250000000e+04
-6.062667187500000000e+04
-6.062732421875000000e+04
-6.062843359375000000e+04
-6.062487890625000000e+04
-6.062396484375000000e+04
-6.062364062500000000e+04
-6.062487890625000000e+04
-6.062345312500000000e+04
-6.062398437500000000e+04
-6.062442187500000000e+04
-6.063473046875000000e+04
-6.063419921875000000e+04
-6.063129296875000000e+04
-6.063064453125000000e+04
-6.062820312500000000e+04
-6.062877343750000000e+04
-6.062925000000000000e+04
-6.063050000000000000e+04
-6.062543359375000000e+04
-6.062761328125000000e+04
-6.062691406250000000e+04
-6.062626562500000000e+04
-6.062464453125000000e+04
-6.062287109375000000e+04
-6.062385546875000000e+04
-6.062523828125000000e+04
-6.062538671875000000e+04
-6.062368359375000000e+04
-6.062607031250000000e+04
-6.062807421875000000e+04
-6.062587890625000000e+04
-6.062476953125000000e+04
-6.062225390625000000e+04
-6.062158593750000000e+04
-6.062651953125000000e+04
-6.062495312500000000e+04
-6.062491015625000000e+04
-6.062559375000000000e+04
-6.062128515625000000e+04
-6.062228515625000000e+04
-6.062372656250000000e+04
-6.062464453125000000e+04
-6.062466406250000000e+04
-6.062219921875000000e+04
-6.062092968750000000e+04
-6.064214062500000000e+04
-6.064023046875000000e+04
-6.063977343750000000e+04
-6.063693359375000000e+04
-6.063542968750000000e+04
-6.063579296875000000e+04
-6.063664062500000000e+04
-6.063713671875000000e+04
-6.063714453125000000e+04
-6.063827343750000000e+04
-6.063855859375000000e+04
-6.064046093750000000e+04
-6.064040234375000000e+04
-6.063972656250000000e+04
-6.063977734375000000e+04
-6.064128906250000000e+04
-6.063901562500000000e+04
-6.063935546875000000e+04
-6.064026171875000000e+04
-6.063864843750000000e+04
-6.064025390625000000e+04
-6.064020703125000000e+04
-6.063959375000000000e+04
-6.063993750000000000e+04
-6.063938671875000000e+04
-6.064017578125000000e+04
-6.064129296875000000e+04
-6.064026562500000000e+04
-6.064113281250000000e+04
-6.064002734375000000e+04
-6.063898828125000000e+04
-6.064012500000000000e+04
-6.064103906250000000e+04
-6.064022265625000000e+04
-6.064119140625000000e+04
-6.064164062500000000e+04
-6.064003906250000000e+04
-6.063998046875000000e+04
-6.064088281250000000e+04
-6.065010546875000000e+04
-6.064301562500000000e+04
-6.064346093750000000e+04
-6.064314453125000000e+04
-6.064339062500000000e+04
-6.064509765625000000e+04
-6.064407421875000000e+04
-6.064484765625000000e+04
-6.064405468750000000e+04
-6.064328515625000000e+04
-6.064401953125000000e+04
-6.064431250000000000e+04
-6.064578906250000000e+04
-6.064655468750000000e+04
-6.064750390625000000e+04
-6.064628125000000000e+04
-6.064429296875000000e+04
-6.064374609375000000e+04
-6.064309375000000000e+04
-6.064394531250000000e+04
-6.064568359375000000e+04
-6.064518750000000000e+04
-6.064541796875000000e+04
-6.064432031250000000e+04
-6.064420312500000000e+04
-6.064457812500000000e+04
-6.064477734375000000e+04
-6.064379296875000000e+04
-6.064526953125000000e+04
-6.064516015625000000e+04
-6.064479687500000000e+04
-6.064525000000000000e+04
-6.063521484375000000e+04
-6.062993359375000000e+04
-6.063019140625000000e+04
-6.063080859375000000e+04
-6.063069921875000000e+04
-6.063046093750000000e+04
-6.063025000000000000e+04
-6.062981640625000000e+04
-6.063205468750000000e+04
-6.063203125000000000e+04
-6.063192187500000000e+04
-6.063082421875000000e+04
-6.063246093750000000e+04
-6.063324609375000000e+04
-6.063227343750000000e+04
-6.063219531250000000e+04
-6.063127343750000000e+04
-6.063306640625000000e+04
-6.063253515625000000e+04
-6.063471093750000000e+04
-6.063097265625000000e+04
-6.063036718750000000e+04
-6.063155468750000000e+04
-6.063137109375000000e+04
-6.063277343750000000e+04
-6.063306250000000000e+04
-6.063201562500000000e+04
-6.063172656250000000e+04
-6.063193359375000000e+04
-6.063166406250000000e+04
-6.063177343750000000e+04
-6.063201562500000000e+04
-6.063335156250000000e+04
-6.063276171875000000e+04
-6.063303906250000000e+04
-6.063323046875000000e+04
-6.063296093750000000e+04
-6.063579687500000000e+04
-6.063766015625000000e+04
-6.063539453125000000e+04
-6.063672265625000000e+04
-6.063864453125000000e+04
-6.063851953125000000e+04
-6.063874218750000000e+04
-6.063658203125000000e+04
-6.063605468750000000e+04
-6.063825781250000000e+04
-6.063869140625000000e+04
-6.063804296875000000e+04
-6.063667968750000000e+04
-6.063626562500000000e+04
-6.063555468750000000e+04
-6.063812109375000000e+04
-6.063917578125000000e+04
-6.064014062500000000e+04
-6.063784375000000000e+04
-6.063873437500000000e+04
-6.063877734375000000e+04
-6.063645703125000000e+04
-6.063691796875000000e+04
-6.063476953125000000e+04
-6.063712109375000000e+04
-6.063989062500000000e+04
-6.063942578125000000e+04
-6.063919531250000000e+04
-6.063899609375000000e+04
-6.063617187500000000e+04
-6.063630468750000000e+04
-6.063765625000000000e+04
-6.063788281250000000e+04
-6.063790234375000000e+04
-6.063928906250000000e+04
-6.063938281250000000e+04
-6.063841796875000000e+04
-6.063777343750000000e+04
-6.062805078125000000e+04
-6.062842968750000000e+04
-6.062704296875000000e+04
-6.062838281250000000e+04
-6.062273828125000000e+04
-6.062251562500000000e+04
-6.062671875000000000e+04
-6.063057031250000000e+04
-6.062801171875000000e+04
-6.062640234375000000e+04
-6.062531250000000000e+04
-6.062282421875000000e+04
-6.062430859375000000e+04
-6.062422656250000000e+04
-6.062461328125000000e+04
-6.062635156250000000e+04
-6.062613281250000000e+04
-6.062592578125000000e+04
-6.062316406250000000e+04
-6.062189843750000000e+04
-6.062604296875000000e+04
-6.062674218750000000e+04
-6.062407421875000000e+04
-6.062270312500000000e+04
-6.062318359375000000e+04
-6.062295312500000000e+04
-6.062234765625000000e+04
-6.062241015625000000e+04
-6.062455859375000000e+04
-6.062205078125000000e+04
-6.062334765625000000e+04
-6.062534375000000000e+04
-6.062364843750000000e+04
-6.062826171875000000e+04
-6.062788671875000000e+04
-6.062625000000000000e+04
-6.062376171875000000e+04
-6.062286328125000000e+04
-6.062392968750000000e+04
-6.064450390625000000e+04
-6.062879687500000000e+04
-6.062836328125000000e+04
-6.062106640625000000e+04
-6.062344140625000000e+04
-6.062388671875000000e+04
-6.062839062500000000e+04
-6.062691406250000000e+04
-6.062905078125000000e+04
-6.062728515625000000e+04
-6.062511328125000000e+04
-6.062496484375000000e+04
-6.062772656250000000e+04
-6.062663671875000000e+04
-6.062452734375000000e+04
-6.062833593750000000e+04
-6.062787500000000000e+04
-6.063059765625000000e+04
-6.062962890625000000e+04
-6.062930859375000000e+04
-6.063152343750000000e+04
-6.062798828125000000e+04
-6.062630859375000000e+04
-6.063076953125000000e+04
-6.063149218750000000e+04
-6.063117187500000000e+04
-6.063060546875000000e+04
-6.063051562500000000e+04
-6.062759765625000000e+04
-6.062791796875000000e+04
-6.062828125000000000e+04
-6.062824609375000000e+04
-6.062990625000000000e+04
-6.063075000000000000e+04
-6.063014062500000000e+04
-6.062900781250000000e+04
-6.062567187500000000e+04
-6.064572656250000000e+04
-6.064292968750000000e+04
-6.064311328125000000e+04
-6.064497265625000000e+04
-6.064322656250000000e+04
-6.064380078125000000e+04
-6.064195312500000000e+04
-6.064091015625000000e+04
-6.064118359375000000e+04
-6.064264453125000000e+04
-6.064389062500000000e+04
-6.064257421875000000e+04
-6.064295312500000000e+04
-6.064327343750000000e+04
-6.064122656250000000e+04
-6.064112109375000000e+04
-6.064121093750000000e+04
-6.064367578125000000e+04
-6.064310156250000000e+04
-6.064357812500000000e+04
-6.064226562500000000e+04
-6.063973437500000000e+04
-6.064183203125000000e+04
-6.064372656250000000e+04
-6.064361328125000000e+04
-6.064366015625000000e+04
-6.064160156250000000e+04
-6.064168359375000000e+04
-6.064078125000000000e+04
-6.064210546875000000e+04
-6.064102734375000000e+04
-6.064072656250000000e+04
-6.063951171875000000e+04
-6.064186718750000000e+04
-6.064238281250000000e+04
-6.064281640625000000e+04
-6.063987890625000000e+04
-6.064111328125000000e+04
-6.064034375000000000e+04
-6.064860937500000000e+04
-6.064768359375000000e+04
-6.064800390625000000e+04
-6.064833203125000000e+04
-6.064694921875000000e+04
-6.064295703125000000e+04
-6.064261328125000000e+04
-6.064177343750000000e+04
-6.064157421875000000e+04
-6.064332031250000000e+04
-6.064260937500000000e+04
-6.064540625000000000e+04
-6.064446093750000000e+04
-6.064435546875000000e+04
-6.064531250000000000e+04
-6.064317578125000000e+04
-6.064258984375000000e+04
-6.064425390625000000e+04
-6.064161328125000000e+04
-6.064192968750000000e+04
-6.063309765625000000e+04
-6.063316015625000000e+04
-6.063105078125000000e+04
-6.063251171875000000e+04
-6.063151953125000000e+04
-6.062879687500000000e+04
-6.063101953125000000e+04
-6.063082421875000000e+04
-6.063253906250000000e+04
-6.063375390625000000e+04
-6.063110937500000000e+04
-6.063019140625000000e+04
-6.062917968750000000e+04
-6.062902734375000000e+04
-6.062969140625000000e+04
-6.063202343750000000e+04
-6.062980078125000000e+04
-6.063238281250000000e+04
-6.063012500000000000e+04
-6.062945312500000000e+04
-6.063170703125000000e+04
-6.063319531250000000e+04
-6.063207421875000000e+04
-6.063298828125000000e+04
-6.063064453125000000e+04
-6.063026562500000000e+04
-6.062733203125000000e+04
-6.062803515625000000e+04
-6.063108593750000000e+04
-6.063153125000000000e+04
-6.063057421875000000e+04
-6.063071093750000000e+04
-6.063103906250000000e+04
-6.063035937500000000e+04
-6.063253125000000000e+04
-6.063317578125000000e+04
-6.063854296875000000e+04
-6.063334765625000000e+04
-6.063037500000000000e+04
-6.063307031250000000e+04
-6.063430078125000000e+04
-6.063498437500000000e+04
-6.063646093750000000e+04
-6.063461718750000000e+04
-6.063479687500000000e+04
-6.063546875000000000e+04
-6.063500390625000000e+04
-6.063575781250000000e+04
-6.063451171875000000e+04
-6.063625000000000000e+04
-6.063149218750000000e+04
-6.063150781250000000e+04
-6.063079687500000000e+04
-6.063283203125000000e+04
-6.063284375000000000e+04
-6.063345703125000000e+04
-6.063094531250000000e+04
-6.063003515625000000e+04
-6.063092968750000000e+04
-6.062980468750000000e+04
-6.063137890625000000e+04
-6.063253515625000000e+04
-6.063321484375000000e+04
-6.063106640625000000e+04
-6.063241015625000000e+04
-6.063026562500000000e+04
-6.063051562500000000e+04
-6.063014453125000000e+04
-6.063060546875000000e+04
-6.063092968750000000e+04
-6.062911718750000000e+04
-6.062836718750000000e+04
-6.062821093750000000e+04
-6.062494140625000000e+04
-6.062610546875000000e+04
-6.062662500000000000e+04
-6.062786718750000000e+04
-6.062301562500000000e+04
-6.062308984375000000e+04
-6.062336718750000000e+04
-6.062252734375000000e+04
-6.061987500000000000e+04
-6.061958984375000000e+04
-6.062132812500000000e+04
-6.061906250000000000e+04
-6.062356250000000000e+04
-6.062294140625000000e+04
-6.062701953125000000e+04
-6.062441015625000000e+04
-6.062296093750000000e+04
-6.062351562500000000e+04
-6.062319140625000000e+04
-6.062477343750000000e+04
-6.062394921875000000e+04
-6.062363281250000000e+04
-6.062458203125000000e+04
-6.062215234375000000e+04
-6.062237890625000000e+04
-6.062222265625000000e+04
-6.062423437500000000e+04
-6.062666406250000000e+04
-6.062546875000000000e+04
-6.062407031250000000e+04
-6.062165234375000000e+04
-6.062424218750000000e+04
-6.062176953125000000e+04
-6.062225000000000000e+04
-6.062423828125000000e+04
-6.062496093750000000e+04
-6.062995312500000000e+04
-6.062904296875000000e+04
-6.062621484375000000e+04
-6.062453125000000000e+04
-6.062666796875000000e+04
-6.062771093750000000e+04
-6.062860546875000000e+04
-6.062916796875000000e+04
-6.062773828125000000e+04
-6.062958593750000000e+04
-6.062984765625000000e+04
-6.062858593750000000e+04
-6.063225000000000000e+04
-6.063297265625000000e+04
-6.063394921875000000e+04
-6.063248437500000000e+04
-6.063123828125000000e+04
-6.063098828125000000e+04
-6.063417968750000000e+04
-6.063399609375000000e+04
-6.063345703125000000e+04
-6.063298046875000000e+04
-6.063097265625000000e+04
-6.063001562500000000e+04
-6.063399218750000000e+04
-6.063273437500000000e+04
-6.063430468750000000e+04
-6.063096875000000000e+04
-6.063134765625000000e+04
-6.063142578125000000e+04
-6.062931250000000000e+04
-6.062892968750000000e+04
-6.063267187500000000e+04
-6.063342578125000000e+04
-6.062982421875000000e+04
-6.063154687500000000e+04
-6.062982812500000000e+04
-6.062996875000000000e+04
-6.062976953125000000e+04
-6.063323828125000000e+04
-6.063205859375000000e+04
-6.064739062500000000e+04
-6.064276562500000000e+04
-6.064486718750000000e+04
-6.064567968750000000e+04
-6.064506640625000000e+04
-6.064574218750000000e+04
-6.064650781250000000e+04
-6.064391015625000000e+04
-6.064466796875000000e+04
-6.064595312500000000e+04
-6.064457812500000000e+04
-6.064580468750000000e+04
-6.064567578125000000e+04
-6.064276171875000000e+04
-6.064299609375000000e+04
-6.064176562500000000e+04
-6.064023828125000000e+04
-6.064036718750000000e+04
-6.064092578125000000e+04
-6.064017968750000000e+04
-6.064119921875000000e+04
-6.064204687500000000e+04
-6.064238671875000000e+04
-6.064216796875000000e+04
-6.064134765625000000e+04
-6.064117578125000000e+04
-6.064046093750000000e+04
-6.064277343750000000e+04
-6.064390625000000000e+04
-6.064391015625000000e+04
-6.064362890625000000e+04
-6.064868750000000000e+04
-6.064784765625000000e+04
-6.064642187500000000e+04
-6.064678125000000000e+04
-6.064774609375000000e+04
-6.064690234375000000e+04
-6.064711718750000000e+04
-6.064633593750000000e+04
-6.064700000000000000e+04
-6.064744921875000000e+04
-6.064773828125000000e+04
-6.064910156250000000e+04
-6.064730468750000000e+04
-6.064770703125000000e+04
-6.064856250000000000e+04
-6.063848046875000000e+04
-6.063473437500000000e+04
-6.063496875000000000e+04
-6.063222656250000000e+04
-6.063195703125000000e+04
-6.063230859375000000e+04
-6.063330859375000000e+04
-6.063225390625000000e+04
-6.063166406250000000e+04
-6.063146093750000000e+04
-6.062962109375000000e+04
-6.063115234375000000e+04
-6.063205078125000000e+04
-6.063074218750000000e+04
-6.063079296875000000e+04
-6.063093750000000000e+04
-6.063051562500000000e+04
-6.063245703125000000e+04
-6.063148437500000000e+04
-6.062948437500000000e+04
-6.062919921875000000e+04
-6.062834765625000000e+04
-6.062964453125000000e+04
-6.063152734375000000e+04
-6.063108203125000000e+04
-6.063180859375000000e+04
-6.062924218750000000e+04
-6.062903515625000000e+04
-6.063173046875000000e+04
-6.062926171875000000e+04
-6.063091406250000000e+04
-6.062961328125000000e+04
-6.062747265625000000e+04
-6.062854296875000000e+04
-6.063204296875000000e+04
-6.063097656250000000e+04
-6.063042578125000000e+04
-6.062989843750000000e+04
-6.062891406250000000e+04
-6.063622265625000000e+04
-6.063518750000000000e+04
-6.063501953125000000e+04
-6.063771484375000000e+04
-6.063573046875000000e+04
-6.063505468750000000e+04
-6.063479296875000000e+04
-6.063426171875000000e+04
-6.063308593750000000e+04
-6.063256250000000000e+04
-6.063292578125000000e+04
-6.063334375000000000e+04
-6.063354687500000000e+04
-6.063437890625000000e+04
-6.063495703125000000e+04
-6.063221093750000000e+04
-6.063385546875000000e+04
-6.063341796875000000e+04
-6.063280859375000000e+04
-6.063295703125000000e+04
-6.063430859375000000e+04
-6.063246484375000000e+04
-6.062976562500000000e+04
-6.062991015625000000e+04
-6.063016406250000000e+04
-6.062893359375000000e+04
-6.062878906250000000e+04
-6.063339062500000000e+04
-6.063240234375000000e+04
-6.063371484375000000e+04
-6.063339062500000000e+04
-6.063250000000000000e+04
-6.063296093750000000e+04
-6.063283203125000000e+04
-6.063481250000000000e+04
-6.063576562500000000e+04
-6.063475000000000000e+04
-6.063384375000000000e+04
-6.063153515625000000e+04
-6.062720703125000000e+04
-6.062560937500000000e+04
-6.062410937500000000e+04
-6.062537109375000000e+04
-6.062645312500000000e+04
-6.062530468750000000e+04
-6.062453125000000000e+04
-6.062792187500000000e+04
-6.062453125000000000e+04
-6.062416796875000000e+04
-6.062069140625000000e+04
-6.062390234375000000e+04
-6.062731640625000000e+04
-6.062746093750000000e+04
-6.062604687500000000e+04
-6.062424609375000000e+04
-6.062745703125000000e+04
-6.062696093750000000e+04
-6.062596484375000000e+04
-6.062611718750000000e+04
-6.062709375000000000e+04
-6.062798437500000000e+04
-6.062667968750000000e+04
-6.062541015625000000e+04
-6.062465625000000000e+04
-6.062774609375000000e+04
-6.062483984375000000e+04
-6.062415234375000000e+04
-6.062301171875000000e+04
-6.062680468750000000e+04
-6.062790234375000000e+04
-6.062686718750000000e+04
-6.062895703125000000e+04
-6.062573828125000000e+04
-6.062362500000000000e+04
-6.062501562500000000e+04
-6.062668359375000000e+04
-6.062588671875000000e+04
-6.062783593750000000e+04
-6.062833984375000000e+04
-6.062645312500000000e+04
-6.063285546875000000e+04
-6.062714062500000000e+04
-6.062617187500000000e+04
-6.062661328125000000e+04
-6.062517968750000000e+04
-6.062167187500000000e+04
-6.062416406250000000e+04
-6.062194921875000000e+04
-6.062085937500000000e+04
-6.062344531250000000e+04
-6.062404687500000000e+04
-6.062383203125000000e+04
-6.062613281250000000e+04
-6.062603515625000000e+04
-6.062473046875000000e+04
-6.062479296875000000e+04
-6.062441796875000000e+04
-6.062467187500000000e+04
-6.062570312500000000e+04
-6.062773046875000000e+04
-6.062790234375000000e+04
-6.062842968750000000e+04
-6.062571875000000000e+04
-6.062409765625000000e+04
-6.062312109375000000e+04
-6.062592187500000000e+04
-6.062698437500000000e+04
-6.062642187500000000e+04
-6.062590234375000000e+04
-6.062606640625000000e+04
-6.062842968750000000e+04
-6.062703125000000000e+04
-6.062706640625000000e+04
-6.062344921875000000e+04
-6.062469140625000000e+04
-6.062725390625000000e+04
-6.062907812500000000e+04
-6.062791796875000000e+04
-6.062742968750000000e+04
-6.062821093750000000e+04
-6.065211328125000000e+04
-6.064487500000000000e+04
-6.064451562500000000e+04
-6.064239843750000000e+04
-6.064200000000000000e+04
-6.063942578125000000e+04
-6.064004687500000000e+04
-6.064113281250000000e+04
-6.064092578125000000e+04
-6.064313281250000000e+04
-6.064178125000000000e+04
-6.064289843750000000e+04
-6.064363281250000000e+04
-6.064371875000000000e+04
-6.064398437500000000e+04
-6.064451562500000000e+04
-6.064319140625000000e+04
-6.064335546875000000e+04
-6.064393359375000000e+04
-6.064453515625000000e+04
-6.064554687500000000e+04
-6.064592187500000000e+04
-6.064243750000000000e+04
-6.064260156250000000e+04
-6.064370312500000000e+04
-6.064468750000000000e+04
-6.064233984375000000e+04
-6.064184765625000000e+04
-6.064690625000000000e+04
-6.064530468750000000e+04
-6.064305468750000000e+04
-6.064456640625000000e+04
-6.064259375000000000e+04
-6.064487890625000000e+04
-6.064473437500000000e+04
-6.064267968750000000e+04
-6.064860546875000000e+04
-6.064606250000000000e+04
-6.064501953125000000e+04
-6.064338281250000000e+04
-6.064490234375000000e+04
-6.064428515625000000e+04
-6.064396093750000000e+04
-6.064394921875000000e+04
-6.064435546875000000e+04
-6.064289843750000000e+04
-6.064342968750000000e+04
-6.064437109375000000e+04
-6.064598828125000000e+04
-6.064518359375000000e+04
-6.064561328125000000e+04
-6.064654296875000000e+04
-6.064529687500000000e+04
-6.064580859375000000e+04
-6.063163281250000000e+04
-6.062985937500000000e+04
-6.062900781250000000e+04
-6.063139843750000000e+04
-6.063142968750000000e+04
-6.062763281250000000e+04
-6.062786718750000000e+04
-6.062812109375000000e+04
-6.062957812500000000e+04
-6.062812890625000000e+04
-6.062740234375000000e+04
-6.062727343750000000e+04
-6.062821093750000000e+04
-6.063027734375000000e+04
-6.063122656250000000e+04
-6.062900000000000000e+04
-6.062858593750000000e+04
-6.062782031250000000e+04
-6.063070312500000000e+04
-6.062907812500000000e+04
-6.062779687500000000e+04
-6.062878906250000000e+04
-6.062918750000000000e+04
-6.062966406250000000e+04
-6.063030078125000000e+04
-6.063246875000000000e+04
-6.062983203125000000e+04
-6.062787500000000000e+04
-6.062894140625000000e+04
-6.062726953125000000e+04
-6.062603125000000000e+04
-6.062748828125000000e+04
-6.062938281250000000e+04
-6.062739843750000000e+04
-6.063033593750000000e+04
-6.062844140625000000e+04
-6.062859375000000000e+04
-6.062792187500000000e+04
-6.063666015625000000e+04
-6.063549609375000000e+04
-6.063417187500000000e+04
-6.063179296875000000e+04
-6.063338281250000000e+04
-6.063644921875000000e+04
-6.063314453125000000e+04
-6.063505078125000000e+04
-6.063166015625000000e+04
-6.063378906250000000e+04
-6.063761328125000000e+04
-6.063621093750000000e+04