1.159963798522949219e+01 -8.110010027885437012e-01 1.064085865020751953e+01 -8.110010027885437012e-01 2.979759979248046875e+01 5.518028736114501953e+00 1.064085865020751953e+01 5.518028736114501953e+00 2.356521987915039062e+01
5.430270671844482422e+00 -2.553910017013549805e+00 -8.682384490966796875e+00 -2.553910017013549805e+00 2.350829315185546875e+01 -1.248631119728088379e+00 -8.682384490966796875e+00 -1.248631119728088379e+00 9.240404129028320312e+00
-5.490324497222900391e+00 8.719241142272949219e+00 3.971139430999755859e+00 8.719241142272949219e+00 2.068738937377929688e+01 -8.814630508422851562e+00 3.971139430999755859e+00 -8.814630508422851562e+00 1.965286445617675781e+01
7.211466312408447266e+00 -9.810965538024902344e+00 -6.922898292541503906e-01 -9.810965538024902344e+00 1.817674255371093750e+01 2.769651412963867188e+00 -6.922898292541503906e-01 2.769651412963867188e+00 -1.548408508300781250e+00
1.422426462173461914e+00 -2.631709814071655273e+00 -3.621222257614135742e+00 -2.631709814071655273e+00 2.391030502319335938e+01 1.106132411956787109e+01 -3.621222257614135742e+00 1.106132411956787109e+01 -4.373219013214111328e-01
3.602751016616821289e+00 -2.164226770401000977e+00 1.291281223297119141e+01 -2.164226770401000977e+00 1.817622947692871094e+01 3.670370340347290039e+00 1.291281223297119141e+01 3.670370340347290039e+00 4.775732040405273438e+00
7.056002140045166016e+00 1.657864761352539062e+01 -9.849045276641845703e-01 1.657864761352539062e+01 2.997216224670410156e+01 1.042796325683593750e+01 -9.849045276641845703e-01 1.042796325683593750e+01 7.369958877563476562e+00
1.865208435058593750e+01 5.911333084106445312e+00 3.242274522781372070e-01 5.911333084106445312e+00 5.154219627380371094e+00 -2.519253194332122803e-01 3.242274522781372070e-01 -2.519253194332122803e-01 5.773512125015258789e-01
2.773135900497436523e+00 6.895963668823242188e+00 7.376121878623962402e-01 6.895963668823242188e+00 1.005227947235107422e+01 -9.281696319580078125e+00 7.376121878623962402e-01 -9.281696319580078125e+00 1.873453521728515625e+01
1.453112602233886719e+01 7.970201015472412109e+00 6.940522670745849609e+00 7.970201015472412109e+00 -5.674555301666259766e+00 -7.340638637542724609e+00 6.940522670745849609e+00 -7.340638637542724609e+00 1.104038715362548828e+01
1.711649131774902344e+01 2.003579139709472656e+00 -5.791162014007568359e+00 2.003579139709472656e+00 2.920741319656372070e+00 5.824429035186767578e+00 -5.791162014007568359e+00 5.824429035186767578e+00 1.953319931030273438e+01
3.461989402770996094e+00 6.252479553222656250e-01 -6.161164760589599609e+00 6.252479553222656250e-01 1.410813903808593750e+01 -7.226521492004394531e+00 -6.161164760589599609e+00 -7.226521492004394531e+00 -2.601439654827117920e-01
2.374105644226074219e+01 -4.079193115234375000e+00 1.171907424926757812e+00 -4.079193115234375000e+00 1.888154602050781250e+01 -1.497853183746337891e+01 1.171907424926757812e+00 -1.497853183746337891e+01 1.284418869018554688e+01
1.039042472839355469e+01 3.899335861206054688e+00 7.426415681838989258e-01 3.899335861206054688e+00 1.122384071350097656e+01 -1.941655516624450684e+00 7.426415681838989258e-01 -1.941655516624450684e+00 -1.068421649932861328e+01
2.624876022338867188e+01 2.316060304641723633e+00 6.894752502441406250e+00 2.316060304641723633e+00 2.384816360473632812e+01 5.106604695320129395e-01 6.894752502441406250e+00 5.106604695320129395e-01 9.066431045532226562e+00
1.238903903961181641e+01 -5.035801529884338379e-01 -7.457738399505615234e+00 -5.035801529884338379e-01 7.469305515289306641e+00 1.345239353179931641e+01 -7.457738399505615234e+00 1.345239353179931641e+01 -1.050928950309753418e+00
1.302134227752685547e+01 -6.327229022979736328e+00 7.778501033782958984e+00 -6.327229022979736328e+00 1.047931480407714844e+01 4.265851154923439026e-02 7.778501033782958984e+00 4.265851154923439026e-02 2.671708822250366211e+00
1.042263698577880859e+01 -5.751509189605712891e+00 1.845377922058105469e+01 -5.751509189605712891e+00 9.120100021362304688e+00 -1.352165818214416504e+00 1.845377922058105469e+01 -1.352165818214416504e+00 1.600664520263671875e+01
1.258242321014404297e+01 6.114333271980285645e-01 1.636280250549316406e+01 6.114333271980285645e-01 1.900233650207519531e+01 -1.515199303627014160e+00 1.636280250549316406e+01 -1.515199303627014160e+00 2.300633430480957031e+01
-1.130812358856201172e+01 -1.303851246833801270e+00 6.849506855010986328e+00 -1.303851246833801270e+00 1.030964374542236328e+01 9.565767288208007812e+00 6.849506855010986328e+00 9.565767288208007812e+00 3.994294166564941406e+00
2.020450592041015625e+01 -2.202560752630233765e-01 -3.877944231033325195e+00 -2.202560752630233765e-01 2.067367744445800781e+01 5.398290157318115234e+00 -3.877944231033325195e+00 5.398290157318115234e+00 1.417476272583007812e+01
7.349277019500732422e+00 -7.042955160140991211e-01 -8.657395362854003906e+00 -7.042955160140991211e-01 1.154686737060546875e+01 -5.649218559265136719e+00 -8.657395362854003906e+00 -5.649218559265136719e+00 8.144360542297363281e+00
1.101073074340820312e+01 5.234919548034667969e+00 6.427301406860351562e+00 5.234919548034667969e+00 9.193695068359375000e+00 -1.158027839660644531e+01 6.427301406860351562e+00 -1.158027839660644531e+01 8.612862586975097656e+00
1.578896617889404297e+01 2.196765184402465820e+00 3.647789478302001953e+00 2.196765184402465820e+00 1.812643623352050781e+01 1.002796888351440430e+00 3.647789478302001953e+00 1.002796888351440430e+00 2.301498603820800781e+01
-5.091593265533447266e-01 -1.116243553161621094e+01 4.608734607696533203e+00 -1.116243553161621094e+01 6.134228229522705078e+00 -1.925854325294494629e+00 4.608734607696533203e+00 -1.925854325294494629e+00 2.094597578048706055e+00
2.159369850158691406e+01 -6.857141017913818359e+00 -4.420171737670898438e+00 -6.857141017913818359e+00 2.579746055603027344e+01 -6.051220417022705078e+00 -4.420171737670898438e+00 -6.051220417022705078e+00 2.324243354797363281e+01
-2.159465789794921875e+00 -3.358998060226440430e+00 4.225721359252929688e+00 -3.358998060226440430e+00 -4.519725322723388672e+00 1.411463165283203125e+01 4.225721359252929688e+00 1.411463165283203125e+01 9.575654029846191406e+00
1.322605800628662109e+01 7.626800060272216797e+00 -2.832688570022583008e+00 7.626800060272216797e+00 2.052417945861816406e+01 5.253942966461181641e+00 -2.832688570022583008e+00 5.253942966461181641e+00 3.123851203918457031e+01
1.561649799346923828e+01 9.865477561950683594e+00 6.169950485229492188e+00 9.865477561950683594e+00 8.724007606506347656e+00 -1.267525863647460938e+01 6.169950485229492188e+00 -1.267525863647460938e+01 -1.083413004875183105e+00
1.944138145446777344e+01 -2.829348087310791016e+00 -8.341112732887268066e-01 -2.829348087310791016e+00 1.284487438201904297e+01 -6.873000621795654297e+00 -8.341112732887268066e-01 -6.873000621795654297e+00 1.631287193298339844e+01
8.772241592407226562e+00 -6.803478598594665527e-01 7.182501792907714844e+00 -6.803478598594665527e-01 1.351203346252441406e+01 1.476762485504150391e+01 7.182501792907714844e+00 1.476762485504150391e+01 1.003066730499267578e+01
1.473958873748779297e+01 -3.946319520473480225e-01 5.562627315521240234e+00 -3.946319520473480225e-01 5.493602901697158813e-02 4.067379951477050781e+00 5.562627315521240234e+00 4.067379951477050781e+00 1.026544094085693359e+01
8.309142112731933594e+00 -9.486066699028015137e-01 -1.632183551788330078e+00 -9.486066699028015137e-01 1.914216423034667969e+01 7.274865627288818359e+00 -1.632183551788330078e+00 7.274865627288818359e+00 2.725482559204101562e+01
-2.539508640766143799e-01 2.627321779727935791e-01 -3.036058843135833740e-01 2.627321779727935791e-01 1.389788341522216797e+01 1.142956447601318359e+01 -3.036058843135833740e-01 1.142956447601318359e+01 1.044231510162353516e+01
-1.018461608886718750e+01 1.330038738250732422e+01 2.116506099700927734e+00 1.330038738250732422e+01 5.264281749725341797e+00 9.509546279907226562e+00 2.116506099700927734e+00 9.509546279907226562e+00 1.407039356231689453e+01
8.339660644531250000e+00 4.150347232818603516e+00 -2.839126110076904297e+00 4.150347232818603516e+00 6.340176582336425781e+00 6.028219223022460938e+00 -2.839126110076904297e+00 6.028219223022460938e+00 2.690881729125976562e+01
1.795620918273925781e+00 4.777424812316894531e+00 3.704587697982788086e+00 4.777424812316894531e+00 8.308355331420898438e+00 5.559269905090332031e+00 3.704587697982788086e+00 5.559269905090332031e+00 2.367600250244140625e+01
2.196383857727050781e+01 -5.690873146057128906e+00 -8.720446586608886719e+00 -5.690873146057128906e+00 2.060590362548828125e+01 -7.859214782714843750e+00 -8.720446586608886719e+00 -7.859214782714843750e+00 3.135610961914062500e+01
3.805346012115478516e+00 7.207886695861816406e+00 -1.044808387756347656e+01 7.207886695861816406e+00 1.921018600463867188e+01 3.557617902755737305e+00 -1.044808387756347656e+01 3.557617902755737305e+00 1.527397918701171875e+01
1.645104026794433594e+01 7.663740158081054688e+00 -1.099355220794677734e+01 7.663740158081054688e+00 1.886400604248046875e+01 1.415119075775146484e+01 -1.099355220794677734e+01 1.415119075775146484e+01 1.110419368743896484e+01
5.134932518005371094e+00 8.563532829284667969e+00 -2.563331127166748047e+00 8.563532829284667969e+00 1.840838050842285156e+01 1.355493259429931641e+01 -2.563331127166748047e+00 1.355493259429931641e+01 1.621509933471679688e+01
2.514675331115722656e+01 3.636378288269042969e+00 -3.681871891021728516e+00 3.636378288269042969e+00 1.943985748291015625e+01 -4.663871765136718750e+00 -3.681871891021728516e+00 -4.663871765136718750e+00 1.435834598541259766e+01
-9.985463142395019531e+00 -3.037833571434020996e-01 -1.478548526763916016e+01 -3.037833571434020996e-01 3.501518249511718750e+00 1.623232483863830566e+00 -1.478548526763916016e+01 1.623232483863830566e+00 1.547129249572753906e+01
8.487143516540527344e+00 -2.184131145477294922e+00 1.528230309486389160e+00 -2.184131145477294922e+00 3.764634323120117188e+01 8.300266861915588379e-01 1.528230309486389160e+00 8.300266861915588379e-01 3.664808654785156250e+01
-3.972744464874267578e+00 -5.248858928680419922e-01 8.236854553222656250e+00 -5.248858928680419922e-01 1.357204055786132812e+01 1.113974571228027344e+01 8.236854553222656250e+00 1.113974571228027344e+01 4.316457271575927734e+00
1.775746917724609375e+01 1.146865272521972656e+01 -8.511405944824218750e+00 1.146865272521972656e+01 -5.443342685699462891e+00 1.158189105987548828e+01 -8.511405944824218750e+00 1.158189105987548828e+01 1.459961795806884766e+01
3.530122280120849609e+00 1.999862861633300781e+01 6.104455471038818359e+00 1.999862861633300781e+01 1.467724704742431641e+01 9.919366240501403809e-02 6.104455471038818359e+00 9.919366240501403809e-02 2.175962066650390625e+01
1.082573032379150391e+01 1.578802967071533203e+01 4.363929748535156250e+00 1.578802967071533203e+01 2.462179946899414062e+01 3.775301456451416016e+00 4.363929748535156250e+00 3.775301456451416016e+00 2.073878288269042969e+01
1.162180137634277344e+01 2.238125562667846680e+00 1.077959910035133362e-01 2.238125562667846680e+00 2.917613792419433594e+01 -7.185749053955078125e+00 1.077959910035133362e-01 -7.185749053955078125e+00 3.143718528747558594e+01
1.284260368347167969e+01 2.343051910400390625e+00 -2.562123537063598633e-01 2.343051910400390625e+00 1.597098636627197266e+01 -8.581116676330566406e+00 -2.562123537063598633e-01 -8.581116676330566406e+00 3.195590972900390625e+01
6.640902519226074219e+00 7.947257995605468750e+00 2.021691322326660156e+00 7.947257995605468750e+00 2.848909950256347656e+01 5.270355701446533203e+00 2.021691322326660156e+00 5.270355701446533203e+00 1.914719581604003906e+01
1.432019329071044922e+01 1.377879238128662109e+01 4.377921581268310547e+00 1.377879238128662109e+01 1.333285236358642578e+01 3.897132873535156250e+00 4.377921581268310547e+00 3.897132873535156250e+00 1.855926322937011719e+01
7.757480144500732422e+00 1.378586292266845703e+01 -4.914101600646972656e+00 1.378586292266845703e+01 4.607965946197509766e+00 9.427820205688476562e+00 -4.914101600646972656e+00 9.427820205688476562e+00 2.426375579833984375e+01
3.043630027770996094e+01 8.579260826110839844e+00 -3.327701330184936523e+00 8.579260826110839844e+00 9.849327087402343750e+00 1.550238418579101562e+01 -3.327701330184936523e+00 1.550238418579101562e+01 4.409883880615234375e+01
-1.186334371566772461e+00 3.185390710830688477e+00 8.459294438362121582e-01 3.185390710830688477e+00 6.759507179260253906e+00 7.881095886230468750e+00 8.459294438362121582e-01 7.881095886230468750e+00 3.315187072753906250e+01
1.954655647277832031e+01 1.157395005226135254e+00 -3.212114796042442322e-02 1.157395005226135254e+00 2.312237167358398438e+01 1.469555854797363281e+01 -3.212114796042442322e-02 1.469555854797363281e+01 3.681515884399414062e+01
-1.332497119903564453e+01 7.147695541381835938e+00 -8.014510154724121094e+00 7.147695541381835938e+00 2.443442153930664062e+01 1.019296169281005859e+01 -8.014510154724121094e+00 1.019296169281005859e+01 1.311813354492187500e+00
-4.646407127380371094e+00 1.412009429931640625e+01 4.273767948150634766e+00 1.412009429931640625e+01 -3.051530122756958008e+00 -3.873594284057617188e+00 4.273767948150634766e+00 -3.873594284057617188e+00 -2.901917266845703125e+01
1.138118362426757812e+01 9.785512924194335938e+00 1.372929453849792480e+00 9.785512924194335938e+00 2.346319961547851562e+01 -1.317622947692871094e+01 1.372929453849792480e+00 -1.317622947692871094e+01 8.224027633666992188e+00
-7.187799811363220215e-01 8.712049484252929688e+00 8.531565666198730469e+00 8.712049484252929688e+00 6.329264640808105469e+00 4.094879627227783203e+00 8.531565666198730469e+00 4.094879627227783203e+00 -5.343450069427490234e+00
2.398773574829101562e+01 1.414508628845214844e+01 -1.809486198425292969e+01 1.414508628845214844e+01 3.844420623779296875e+01 -7.853144645690917969e+00 -1.809486198425292969e+01 -7.853144645690917969e+00 2.917193651199340820e+00
-1.238649940490722656e+01 7.681922435760498047e+00 2.154255390167236328e+00 7.681922435760498047e+00 8.251628875732421875e+00 1.170274448394775391e+01 2.154255390167236328e+00 1.170274448394775391e+01 -6.493025302886962891e+00
1.476351642608642578e+01 -5.957113265991210938e+00 6.143471240997314453e+00 -5.957113265991210938e+00 1.672229385375976562e+01 9.329546928405761719e+00 6.143471240997314453e+00 9.329546928405761719e+00 3.773718643188476562e+01
9.940329551696777344e+00 1.397290039062500000e+01 -7.959843158721923828e+00 1.397290039062500000e+01 1.725637817382812500e+01 1.355447769165039062e+01 -7.959843158721923828e+00 1.355447769165039062e+01 2.723727416992187500e+01
-9.648322105407714844e+00 2.003798294067382812e+01 -6.388792991638183594e+00 2.003798294067382812e+01 6.592913627624511719e+00 -1.063285708427429199e+00 -6.388792991638183594e+00 -1.063285708427429199e+00 -1.458464336395263672e+01
3.337803649902343750e+01 7.667397499084472656e+00 6.955595016479492188e+00 7.667397499084472656e+00 4.202120590209960938e+01 -8.244394302368164062e+00 6.955595016479492188e+00 -8.244394302368164062e+00 2.530445480346679688e+01
-1.236589527130126953e+01 2.567869424819946289e+00 -9.104162216186523438e+00 2.567869424819946289e+00 7.118127822875976562e+00 3.123235225677490234e+00 -9.104162216186523438e+00 3.123235225677490234e+00 -7.115647792816162109e+00
2.167992782592773438e+01 7.204021930694580078e+00 -1.158156871795654297e+00 7.204021930694580078e+00 4.422961425781250000e+01 -2.466090917587280273e+00 -1.158156871795654297e+00 -2.466090917587280273e+00 2.854964256286621094e+01
-3.999088048934936523e+00 1.128915309906005859e+01 4.744997501373291016e+00 1.128915309906005859e+01 1.362320423126220703e+01 8.374753594398498535e-01 4.744997501373291016e+00 8.374753594398498535e-01 -1.446070969104766846e-01
1.986724472045898438e+01 4.768790245056152344e+00 5.023595809936523438e+00 4.768790245056152344e+00 2.667212295532226562e+01 -1.162472343444824219e+01 5.023595809936523438e+00 -1.162472343444824219e+01 1.762017250061035156e+01
8.611179351806640625e+00 -2.444977521896362305e+00 -1.976100349426269531e+01 -2.444977521896362305e+00 4.052955245971679688e+01 -2.406921863555908203e+00 -1.976100349426269531e+01 -2.406921863555908203e+00 1.916895103454589844e+01
3.755915164947509766e+00 -4.904672622680664062e+00 -6.690910339355468750e+00 -4.904672622680664062e+00 1.632497978210449219e+01 6.789798736572265625e+00 -6.690910339355468750e+00 6.789798736572265625e+00 1.760908603668212891e+00
1.116283416748046875e+01 2.229104757308959961e+00 8.322894096374511719e+00 2.229104757308959961e+00 2.352161407470703125e+00 1.695264625549316406e+01 8.322894096374511719e+00 1.695264625549316406e+01 1.127566719055175781e+01
2.194287490844726562e+01 -8.797388076782226562e+00 6.085551977157592773e-01 -8.797388076782226562e+00 1.231729125976562500e+01 7.344753742218017578e+00 6.085551977157592773e-01 7.344753742218017578e+00 1.882853507995605469e+01
7.257216930389404297e+00 5.600755214691162109e+00 1.270911121368408203e+01 5.600755214691162109e+00 1.469864845275878906e+01 9.380531311035156250e+00 1.270911121368408203e+01 9.380531311035156250e+00 6.489823818206787109e+00
1.930035400390625000e+01 -1.826934242248535156e+01 -2.836475610733032227e+00 -1.826934242248535156e+01 1.725125122070312500e+01 -1.001721262931823730e+00 -2.836475610733032227e+00 -1.001721262931823730e+00 1.018727874755859375e+01
2.160931777954101562e+01 -7.289623022079467773e-01 1.623065710067749023e+00 -7.289623022079467773e-01 5.025269985198974609e+00 -5.320232391357421875e+00 1.623065710067749023e+00 -5.320232391357421875e+00 1.389734268188476562e+01
2.051694107055664062e+01 6.084443092346191406e+00 -5.002251625061035156e+00 6.084443092346191406e+00 8.759082794189453125e+00 8.311007499694824219e+00 -5.002251625061035156e+00 8.311007499694824219e+00 2.440230560302734375e+01
-6.764840126037597656e+00 1.410671591758728027e+00 -7.234664916992187500e+00 1.410671591758728027e+00 2.718604660034179688e+01 4.814354419708251953e+00 -7.234664916992187500e+00 4.814354419708251953e+00 -1.401482988148927689e-02
1.032237434387207031e+01 1.581267118453979492e+00 -2.451113128662109375e+01 1.581267118453979492e+00 1.465399456024169922e+01 -3.868055105209350586e+00 -2.451113128662109375e+01 -3.868055105209350586e+00 1.137424087524414062e+01
3.135227012634277344e+01 3.267869472503662109e+00 -6.180901527404785156e+00 3.267869472503662109e+00 5.656069755554199219e+00 -7.384485751390457153e-02 -6.180901527404785156e+00 -7.384485751390457153e-02 2.952311515808105469e+01
6.466272830963134766e+00 -2.718290090560913086e+00 1.922962379455566406e+01 -2.718290090560913086e+00 -1.986724376678466797e+00 1.099465942382812500e+01 1.922962379455566406e+01 1.099465942382812500e+01 2.674764823913574219e+01
3.005049705505371094e+01 7.827022075653076172e+00 1.714148902893066406e+01 7.827022075653076172e+00 2.862216377258300781e+01 -4.485594034194946289e-01 1.714148902893066406e+01 -4.485594034194946289e-01 4.037179183959960938e+01
1.509031867980957031e+01 -8.173249244689941406e+00 -8.517753601074218750e+00 -8.173249244689941406e+00 1.623879051208496094e+01 -8.753068923950195312e+00 -8.517753601074218750e+00 -8.753068923950195312e+00 2.796103715896606445e+00
1.780310249328613281e+01 1.351895570755004883e+00 -5.994710922241210938e+00 1.351895570755004883e+00 3.058670997619628906e+01 -1.959542751312255859e+00 -5.994710922241210938e+00 -1.959542751312255859e+00 1.180744266510009766e+01
-1.515979194641113281e+01 1.227997207641601562e+01 -1.683196187019348145e+00 1.227997207641601562e+01 4.355755329132080078e+00 9.721297264099121094e+00 -1.683196187019348145e+00 9.721297264099121094e+00 2.655994606018066406e+01
8.973433494567871094e+00 7.392739772796630859e+00 -9.839411735534667969e+00 7.392739772796630859e+00 2.435285568237304688e+01 -1.311300373077392578e+01 -9.839411735534667969e+00 -1.311300373077392578e+01 4.636114120483398438e+01
-9.895805716514587402e-01 5.536569118499755859e+00 3.706654071807861328e+00 5.536569118499755859e+00 8.480159759521484375e+00 -2.928885221481323242e-01 3.706654071807861328e+00 -2.928885221481323242e-01 -5.674087405204772949e-01
2.136621475219726562e+01 5.575661182403564453e+00 1.235365867614746094e+01 5.575661182403564453e+00 3.351311492919921875e+01 5.517422676086425781e+00 1.235365867614746094e+01 5.517422676086425781e+00 2.650366210937500000e+01
3.225401878356933594e+00 -7.906656265258789062e+00 -4.102365374565124512e-01 -7.906656265258789062e+00 9.681991338729858398e-01 -1.614913344383239746e-02 -4.102365374565124512e-01 -1.614913344383239746e-02 1.009728145599365234e+01
1.390163421630859375e+01 1.195491313934326172e+01 -6.404425144195556641e+00 1.195491313934326172e+01 3.332276535034179688e+01 7.692793846130371094e+00 -6.404425144195556641e+00 7.692793846130371094e+00 3.517700195312500000e+01
-1.037590217590332031e+01 3.104273080825805664e+00 1.072124576568603516e+01 3.104273080825805664e+00 1.018892383575439453e+01 -2.141694784164428711e+00 1.072124576568603516e+01 -2.141694784164428711e+00 1.740120315551757812e+01
1.241356563568115234e+01 3.749006271362304688e+00 1.861009216308593750e+01 3.749006271362304688e+00 1.799061012268066406e+01 -1.506216430664062500e+01 1.861009216308593750e+01 -1.506216430664062500e+01 3.558721542358398438e+01
1.105162715911865234e+01 1.568710041046142578e+01 2.379366874694824219e+00 1.568710041046142578e+01 1.653199005126953125e+01 -2.052054405212402344e+00 2.379366874694824219e+00 -2.052054405212402344e+00 8.045360565185546875e+00
-2.211720848083496094e+01 3.845889091491699219e+00 -5.143304467201232910e-01 3.845889091491699219e+00 1.043894767761230469e+01 7.311040759086608887e-01 -5.143304467201232910e-01 7.311040759086608887e-01 2.141272354125976562e+01
-1.333013057708740234e+01 7.813102245330810547e+00 -8.953768730163574219e+00 7.813102245330810547e+00 1.996744537353515625e+01 1.588359355926513672e+01 -8.953768730163574219e+00 1.588359355926513672e+01 -8.457923680543899536e-02
2.072541046142578125e+01 -1.095388126373291016e+01 9.836145043373107910e-01 -1.095388126373291016e+01 2.096370506286621094e+01 8.223933219909667969e+00 9.836145043373107910e-01 8.223933219909667969e+00 7.429697990417480469e+00
-5.831182003021240234e+00 1.157583332061767578e+01 -8.135640144348144531e+00 1.157583332061767578e+01 2.835104560852050781e+01 6.515730857849121094e+00 -8.135640144348144531e+00 6.515730857849121094e+00 2.293840169906616211e+00
4.221116065979003906e+00 8.495257377624511719e+00 -6.768879890441894531e+00 8.495257377624511719e+00 9.835036277770996094e+00 8.121572494506835938e+00 -6.768879890441894531e+00 8.121572494506835938e+00 -8.895606040954589844e+00
5.203413963317871094e+00 7.996806144714355469e+00 2.157783985137939453e+00 7.996806144714355469e+00 2.652891540527343750e+01 7.175246715545654297e+00 2.157783985137939453e+00 7.175246715545654297e+00 1.471762180328369141e+01
2.929473495483398438e+01 -4.494215965270996094e+00 1.032108116149902344e+01 -4.494215965270996094e+00 2.257654571533203125e+01 1.232058167457580566e+00 1.032108116149902344e+01 1.232058167457580566e+00 2.757647132873535156e+01
9.130217552185058594e+00 1.626186943054199219e+01 6.385225296020507812e+00 1.626186943054199219e+01 -2.261190891265869141e+00 1.096029639244079590e+00 6.385225296020507812e+00 1.096029639244079590e+00 -1.113603019714355469e+01
3.207905578613281250e+01 1.271068000793457031e+01 -3.409265518188476562e+00 1.271068000793457031e+01 2.738080215454101562e+01 1.238951206207275391e+00 -3.409265518188476562e+00 1.238951206207275391e+00 4.199397277832031250e+01
4.689422547817230225e-01 4.261792182922363281e+00 -1.231008243560791016e+01 4.261792182922363281e+00 1.635046768188476562e+01 2.115708351135253906e+00 -1.231008243560791016e+01 2.115708351135253906e+00 3.264627838134765625e+01
3.441307830810546875e+01 3.996057033538818359e+00 -1.924160718917846680e+00 3.996057033538818359e+00 2.289130783081054688e+01 -3.036644697189331055e+00 -1.924160718917846680e+00 -3.036644697189331055e+00 6.811072349548339844e+00
1.975995445251464844e+01 -1.312612533569335938e+01 -7.258890151977539062e+00 -1.312612533569335938e+01 2.477516651153564453e+00 3.133958339691162109e+00 -7.258890151977539062e+00 3.133958339691162109e+00 1.516855835914611816e+00
7.882387161254882812e+00 1.088319969177246094e+01 -9.205287694931030273e-02 1.088319969177246094e+01 2.604920959472656250e+01 -8.072883605957031250e+00 -9.205287694931030273e-02 -8.072883605957031250e+00 4.180296707153320312e+01
3.819958877563476562e+01 -1.317461252212524414e+00 -1.326804041862487793e+00 -1.317461252212524414e+00 3.674978017807006836e+00 -1.342043399810791016e+00 -1.326804041862487793e+00 -1.342043399810791016e+00 3.106807708740234375e+01
-1.602571845054626465e+00 -8.002919197082519531e+00 8.858798980712890625e+00 -8.002919197082519531e+00 3.066816711425781250e+01 -1.533676242828369141e+01 8.858798980712890625e+00 -1.533676242828369141e+01 2.414288902282714844e+01
1.217519283294677734e+01 -4.807528495788574219e+00 -2.974507808685302734e+00 -4.807528495788574219e+00 3.860590362548828125e+01 -1.103909492492675781e+01 -2.974507808685302734e+00 -1.103909492492675781e+01 2.189446830749511719e+01
-1.474377274513244629e+00 2.902026414871215820e+00 1.064927768707275391e+01 2.902026414871215820e+00 5.924829959869384766e+00 9.044924736022949219e+00 1.064927768707275391e+01 9.044924736022949219e+00 -5.028618335723876953e+00
2.374080085754394531e+01 -5.783894538879394531e+00 1.909848022460937500e+01 -5.783894538879394531e+00 2.957872200012207031e+01 -6.470744132995605469e+00 1.909848022460937500e+01 -6.470744132995605469e+00 2.267966842651367188e+01
1.632940864562988281e+01 -6.068004608154296875e+00 4.693681240081787109e+00 -6.068004608154296875e+00 2.134066009521484375e+01 -1.471380615234375000e+01 4.693681240081787109e+00 -1.471380615234375000e+01 1.968780636787414551e+00
3.442921400070190430e+00 -3.488297224044799805e+00 -2.129314184188842773e+00 -3.488297224044799805e+00 3.534857559204101562e+01 4.127807617187500000e+00 -2.129314184188842773e+00 4.127807617187500000e+00 4.370681381225585938e+01
1.890134620666503906e+01 -8.634460449218750000e+00 -3.091569900512695312e+00 -8.634460449218750000e+00 1.073234748840332031e+01 1.216123008728027344e+01 -3.091569900512695312e+00 1.216123008728027344e+01 1.336462688446044922e+01
4.345909500122070312e+01 -4.499477863311767578e+00 6.268108367919921875e+00 -4.499477863311767578e+00 9.828783035278320312e+00 -4.626747608184814453e+00 6.268108367919921875e+00 -4.626747608184814453e+00 7.912067770957946777e-01
1.666707611083984375e+01 1.204899191856384277e+00 1.432919120788574219e+01 1.204899191856384277e+00 1.484281921386718750e+01 -4.118093490600585938e+00 1.432919120788574219e+01 -4.118093490600585938e+00 1.365304946899414062e+01
1.240957450866699219e+01 -6.811902046203613281e+00 9.782732725143432617e-01 -6.811902046203613281e+00 1.099239921569824219e+01 -1.071206951141357422e+01 9.782732725143432617e-01 -1.071206951141357422e+01 2.461252975463867188e+01
1.330215835571289062e+01 -1.656428146362304688e+01 -1.934934854507446289e+00 -1.656428146362304688e+01 7.411565780639648438e+00 -1.273310184478759766e+01 -1.934934854507446289e+00 -1.273310184478759766e+01 1.027612495422363281e+01
2.102334213256835938e+01 -7.951558113098144531e+00 -6.326295375823974609e+00 -7.951558113098144531e+00 1.638514900207519531e+01 4.510080814361572266e+00 -6.326295375823974609e+00 4.510080814361572266e+00 1.460056900978088379e+00
2.160154914855957031e+01 4.647866249084472656e+00 -5.781423091888427734e+00 4.647866249084472656e+00 -8.025387763977050781e+00 -4.353845596313476562e+00 -5.781423091888427734e+00 -4.353845596313476562e+00 1.862875556945800781e+01
1.523004341125488281e+01 -1.754440546035766602e+00 5.934571027755737305e-01 -1.754440546035766602e+00 2.002935600280761719e+01 1.747669029235839844e+01 5.934571027755737305e-01 1.747669029235839844e+01 2.702613258361816406e+01
1.059045124053955078e+01 1.545146751403808594e+01 -9.231001853942871094e+00 1.545146751403808594e+01 4.780973792076110840e-01 7.254497051239013672e+00 -9.231001853942871094e+00 7.254497051239013672e+00 -5.915442466735839844e+00
2.657936286926269531e+01 1.454600572586059570e+00 -2.683058023452758789e+00 1.454600572586059570e+00 1.597414112091064453e+01 -1.176430797576904297e+01 -2.683058023452758789e+00 -1.176430797576904297e+01 8.806671142578125000e+00
1.543177318572998047e+01 -1.266111373901367188e+01 -8.245300292968750000e+00 -1.266111373901367188e+01 1.660272407531738281e+01 -5.524500370025634766e+00 -8.245300292968750000e+00 -5.524500370025634766e+00 5.225104331970214844e+00
3.282280731201171875e+01 -1.511010360717773438e+01 6.347393035888671875e+00 -1.511010360717773438e+01 1.942068481445312500e+01 6.628312587738037109e+00 6.347393035888671875e+00 6.628312587738037109e+00 5.228078842163085938e+00
8.255553245544433594e+00 -7.822587966918945312e+00 -3.760647535324096680e+00 -7.822587966918945312e+00 -1.050662612915039062e+01 -6.689480304718017578e+00 -3.760647535324096680e+00 -6.689480304718017578e+00 9.946810722351074219e+00
2.577416419982910156e+01 4.256078720092773438e+00 -1.099510550498962402e+00 4.256078720092773438e+00 2.928817367553710938e+01 -3.171609878540039062e+01 -1.099510550498962402e+00 -3.171609878540039062e+01 4.763500595092773438e+01
-4.876875400543212891e+00 -8.833455085754394531e+00 -3.405445218086242676e-01 -8.833455085754394531e+00 -2.263425827026367188e+00 -4.296042919158935547e+00 -3.405445218086242676e-01 -4.296042919158935547e+00 4.081773281097412109e+00
1.605054855346679688e+01 8.647646009922027588e-02 -1.579893589019775391e+00 8.647646009922027588e-02 1.755347251892089844e+01 3.483402013778686523e+00 -1.579893589019775391e+00 3.483402013778686523e+00 3.407239913940429688e+01
3.078733062744140625e+01 -4.969607591629028320e-01 1.759048271179199219e+01 -4.969607591629028320e-01 2.525983047485351562e+01 -1.650581741333007812e+01 1.759048271179199219e+01 -1.650581741333007812e+01 3.868197250366210938e+01