-6.069317187500000000e+04
-6.066233984375000000e+04
-6.064837500000000000e+04
-6.065047265625000000e+04
-6.064738281250000000e+04
-6.064614062500000000e+04
-6.064738671875000000e+04
-6.064388281250000000e+04
-6.064650390625000000e+04
-6.064410937500000000e+04
-6.064671484375000000e+04
-6.064804296875000000e+04
-6.064693750000000000e+04
-6.064475781250000000e+04
-6.064692968750000000e+04
-6.064396484375000000e+04
-6.064814843750000000e+04
-6.069317187500000000e+04
-6.064923437500000000e+04
-6.064990625000000000e+04
-6.065100000000000000e+04
-6.065051562500000000e+04
-6.064516796875000000e+04
-6.064777343750000000e+04
-6.064766796875000000e+04
-6.064995703125000000e+04
-6.064894140625000000e+04
-6.064561718750000000e+04
-6.064916015625000000e+04
-6.064848828125000000e+04
-6.064569921875000000e+04
-6.064990234375000000e+04
-6.064869531250000000e+04
-6.064583203125000000e+04
-6.064517968750000000e+04
-6.064757421875000000e+04
-6.064764453125000000e+04
-6.064153906250000000e+04
-6.064460156250000000e+04
-6.069317187500000000e+04
-6.064401953125000000e+04
-6.063271484375000000e+04
-6.062960937500000000e+04
-6.062912500000000000e+04
-6.063076562500000000e+04
-6.062822265625000000e+04
-6.062692578125000000e+04
-6.062972656250000000e+04
-6.062875781250000000e+04
-6.062634765625000000e+04
-6.062827343750000000e+04
-6.063253906250000000e+04
-6.062997265625000000e+04
-6.062604296875000000e+04
-6.063057421875000000e+04
-6.063030078125000000e+04
-6.062756640625000000e+04
-6.062560546875000000e+04
-6.062784375000000000e+04
-6.062569140625000000e+04
-6.062703906250000000e+04
-6.069317187500000000e+04
-6.063448828125000000e+04
-6.063549609375000000e+04
-6.063667578125000000e+04
-6.063419140625000000e+04
-6.063337890625000000e+04
-6.063537890625000000e+04
-6.063694531250000000e+04
-6.063138671875000000e+04
-6.062750000000000000e+04
-6.062513281250000000e+04
-6.062768359375000000e+04
-6.062908203125000000e+04
-6.062840234375000000e+04
-6.063328125000000000e+04
-6.063460156250000000e+04
-6.063298828125000000e+04
-6.063210156250000000e+04
-6.063100390625000000e+04
-6.069317187500000000e+04
-6.063223828125000000e+04
-6.062464843750000000e+04
-6.061485937500000000e+04
-6.061434375000000000e+04
-6.061868359375000000e+04
-6.061547265625000000e+04
-6.061461328125000000e+04
-6.061629687500000000e+04
-6.061816406250000000e+04
-6.060592968750000000e+04
-6.060885156250000000e+04
-6.061211718750000000e+04
-6.061462890625000000e+04
-6.061551562500000000e+04
-6.061275000000000000e+04
-6.061349218750000000e+04
-6.061184375000000000e+04
-6.061303906250000000e+04
-6.061223828125000000e+04
-6.061311328125000000e+04
-6.060842578125000000e+04
-6.061028906250000000e+04
-6.061478515625000000e+04
-6.061143359375000000e+04
-6.062227343750000000e+04
-6.061199218750000000e+04
-6.069317187500000000e+04
-6.065164062500000000e+04
-6.062412109375000000e+04
-6.062119531250000000e+04
-6.061657031250000000e+04
-6.061676953125000000e+04
-6.061750000000000000e+04
-6.061796093750000000e+04
-6.061465625000000000e+04
-6.062107812500000000e+04
-6.061727343750000000e+04
-6.061076562500000000e+04
-6.060843750000000000e+04
-6.061711718750000000e+04
-6.061959765625000000e+04
-6.061152734375000000e+04
-6.061381640625000000e+04
-6.061666406250000000e+04
-6.061993359375000000e+04
-6.062346093750000000e+04
-6.061823828125000000e+04
-6.061642968750000000e+04
-6.061435156250000000e+04
-6.061282812500000000e+04
-6.069371093750000000e+04
-6.064872265625000000e+04
-6.064840234375000000e+04
-6.064957812500000000e+04
-6.065002343750000000e+04
-6.064308984375000000e+04
-6.064912500000000000e+04
-6.064950781250000000e+04
-6.064861328125000000e+04
-6.064751171875000000e+04
-6.065012890625000000e+04
-6.064979687500000000e+04
-6.064723437500000000e+04
-6.064337890625000000e+04
-6.064837109375000000e+04
-6.064762109375000000e+04
-6.065090625000000000e+04
-6.069371093750000000e+04
-6.066114453125000000e+04
-6.065381640625000000e+04
-6.064983593750000000e+04
-6.064904296875000000e+04
-6.064862500000000000e+04
-6.064732031250000000e+04
-6.065236328125000000e+04
-6.064988671875000000e+04
-6.064901953125000000e+04
-6.065060546875000000e+04
-6.065147265625000000e+04
-6.065016406250000000e+04
-6.064690234375000000e+04
-6.065051953125000000e+04
-6.064977734375000000e+04
-6.064860156250000000e+04
-6.064988671875000000e+04
-6.064867968750000000e+04
-6.064809375000000000e+04
-6.064786718750000000e+04
-6.064848437500000000e+04
-6.064909375000000000e+04
-6.069371093750000000e+04
-6.065168750000000000e+04
-6.064533203125000000e+04
-6.063665625000000000e+04
-6.063633984375000000e+04
-6.063778515625000000e+04
-6.063605078125000000e+04
-6.063231640625000000e+04
-6.063084765625000000e+04
-6.063092187500000000e+04
-6.062815234375000000e+04
-6.062939843750000000e+04
-6.063333203125000000e+04
-6.062931640625000000e+04
-6.062959375000000000e+04
-6.063023828125000000e+04
-6.062833984375000000e+04
-6.062842187500000000e+04
-6.062856250000000000e+04
-6.062966796875000000e+04
-6.063116796875000000e+04
-6.063083593750000000e+04
-6.063290234375000000e+04
-6.062988671875000000e+04
-6.063012890625000000e+04
-6.062619531250000000e+04
-6.062701953125000000e+04
-6.062803906250000000e+04
-6.069371093750000000e+04
-6.064415234375000000e+04
-6.064068359375000000e+04
-6.063427343750000000e+04
-6.063782812500000000e+04
-6.063533984375000000e+04
-6.063197265625000000e+04
-6.063348437500000000e+04
-6.063035546875000000e+04
-6.063669921875000000e+04
-6.063352734375000000e+04
-6.063173046875000000e+04
-6.063334765625000000e+04
-6.063397265625000000e+04
-6.063322265625000000e+04
-6.063348046875000000e+04
-6.064119531250000000e+04
-6.062339062500000000e+04
-6.061522265625000000e+04
-6.061248828125000000e+04
-6.061171875000000000e+04
-6.061601562500000000e+04
-6.061204687500000000e+04
-6.061617968750000000e+04
-6.061691015625000000e+04
-6.061562890625000000e+04
-6.061482421875000000e+04
-6.061466015625000000e+04
-6.061238281250000000e+04
-6.061401171875000000e+04
-6.061404296875000000e+04
-6.061748437500000000e+04
-6.061690234375000000e+04
-6.061816015625000000e+04
-6.062103515625000000e+04
-6.061729687500000000e+04
-6.069371093750000000e+04
-6.064155468750000000e+04
-6.063450781250000000e+04
-6.062662109375000000e+04
-6.061943750000000000e+04
-6.061278515625000000e+04
-6.061351562500000000e+04
-6.061682421875000000e+04
-6.061671093750000000e+04
-6.061796484375000000e+04
-6.061797265625000000e+04
-6.061407812500000000e+04
-6.061296093750000000e+04
-6.061714062500000000e+04
-6.061528906250000000e+04
-6.061739062500000000e+04
-6.061700390625000000e+04
-6.062007031250000000e+04
-6.061943750000000000e+04
-6.061791015625000000e+04
-6.061700781250000000e+04
-6.061765625000000000e+04
-6.061880078125000000e+04
-6.061342578125000000e+04
-6.061617968750000000e+04
-6.061326562500000000e+04
-6.061262500000000000e+04
-6.061599609375000000e+04
-6.061691015625000000e+04
-6.069317968750000000e+04
-6.066057812500000000e+04
-6.065459765625000000e+04
-6.064842968750000000e+04
-6.064618359375000000e+04
-6.064658203125000000e+04
-6.064942968750000000e+04
-6.064685546875000000e+04
-6.065031250000000000e+04
-6.065023437500000000e+04
-6.064948437500000000e+04
-6.064895703125000000e+04
-6.064335156250000000e+04
-6.064641406250000000e+04
-6.064162890625000000e+04
-6.064229687500000000e+04
-6.064444140625000000e+04
-6.065155859375000000e+04
-6.064790625000000000e+04
-6.064716015625000000e+04
-6.065121093750000000e+04
-6.064564453125000000e+04
-6.064694140625000000e+04
-6.064523437500000000e+04
-6.064305468750000000e+04
-6.064394531250000000e+04
-6.064821875000000000e+04
-6.064827343750000000e+04
-6.064756250000000000e+04
-6.064664843750000000e+04
-6.064883984375000000e+04
-6.064810937500000000e+04
-6.064914453125000000e+04
-6.064725781250000000e+04
-6.064650781250000000e+04
-6.069317968750000000e+04
-6.066192578125000000e+04
-6.065278515625000000e+04
-6.064623046875000000e+04
-6.064073437500000000e+04
-6.063159375000000000e+04
-6.063248828125000000e+04
-6.063464062500000000e+04
-6.063142187500000000e+04
-6.063084765625000000e+04
-6.062637109375000000e+04
-6.062675000000000000e+04
-6.062697265625000000e+04
-6.063040625000000000e+04
-6.063014453125000000e+04
-6.063248828125000000e+04
-6.062893750000000000e+04
-6.062877343750000000e+04
-6.062910546875000000e+04
-6.063014062500000000e+04
-6.062801953125000000e+04
-6.062601171875000000e+04
-6.063074609375000000e+04
-6.063044921875000000e+04
-6.062762500000000000e+04
-6.069317968750000000e+04
-6.064875000000000000e+04
-6.063805078125000000e+04
-6.063342187500000000e+04
-6.063500000000000000e+04
-6.063155859375000000e+04
-6.063194921875000000e+04
-6.063015625000000000e+04
-6.063103125000000000e+04
-6.063003515625000000e+04
-6.062862500000000000e+04
-6.063291796875000000e+04
-6.063208593750000000e+04
-6.063221484375000000e+04
-6.062879296875000000e+04
-6.063272656250000000e+04
-6.063146484375000000e+04
-6.063158984375000000e+04
-6.062962890625000000e+04
-6.063396093750000000e+04
-6.063374609375000000e+04
-6.063535937500000000e+04
-6.065832421875000000e+04
-6.064959765625000000e+04
-6.062525390625000000e+04
-6.061393359375000000e+04
-6.061461328125000000e+04
-6.061196093750000000e+04
-6.061290625000000000e+04
-6.061238281250000000e+04
-6.061392187500000000e+04
-6.061244140625000000e+04
-6.061023828125000000e+04
-6.060933203125000000e+04
-6.061459765625000000e+04
-6.060908984375000000e+04
-6.061419140625000000e+04
-6.060887890625000000e+04
-6.061314062500000000e+04
-6.061273828125000000e+04
-6.061171484375000000e+04
-6.061298828125000000e+04
-6.061557812500000000e+04
-6.061320703125000000e+04
-6.061232812500000000e+04
-6.061609375000000000e+04
-6.061701171875000000e+04
-6.061550390625000000e+04
-6.061512500000000000e+04
-6.061655859375000000e+04
-6.061260937500000000e+04
-6.069317968750000000e+04
-6.065505859375000000e+04
-6.063388281250000000e+04
-6.061637890625000000e+04
-6.061512500000000000e+04
-6.061451171875000000e+04
-6.061590625000000000e+04
-6.061302343750000000e+04
-6.061996875000000000e+04
-6.062037890625000000e+04
-6.061862109375000000e+04
-6.061442968750000000e+04
-6.061883203125000000e+04
-6.062082421875000000e+04
-6.061422265625000000e+04
-6.061283203125000000e+04
-6.061398046875000000e+04
-6.061373046875000000e+04
-6.061871093750000000e+04
-6.061594921875000000e+04
-6.061847656250000000e+04
-6.061427734375000000e+04
-6.061713671875000000e+04
-6.061402734375000000e+04
-6.061284765625000000e+04
-6.061230859375000000e+04
-6.065079296875000000e+04
-6.064900781250000000e+04
-6.064752734375000000e+04
-6.064525390625000000e+04
-6.064657812500000000e+04
-6.064854296875000000e+04
-6.065128515625000000e+04
-6.064903906250000000e+04
-6.064726171875000000e+04
-6.064862890625000000e+04
-6.064704296875000000e+04
-6.064469531250000000e+04
-6.064682812500000000e+04
-6.064530468750000000e+04
-6.064842968750000000e+04
-6.064769531250000000e+04
-6.067096875000000000e+04
-6.064857031250000000e+04
-6.065035546875000000e+04
-6.065159765625000000e+04
-6.064934375000000000e+04
-6.065069531250000000e+04
-6.065290625000000000e+04
-6.065108984375000000e+04
-6.064786328125000000e+04
-6.064689453125000000e+04
-6.064407421875000000e+04
-6.064484765625000000e+04
-6.064925390625000000e+04
-6.064776953125000000e+04
-6.064768359375000000e+04
-6.064857031250000000e+04
-6.063878906250000000e+04
-6.063495312500000000e+04
-6.062984765625000000e+04
-6.063436328125000000e+04
-6.063266406250000000e+04
-6.063004296875000000e+04
-6.062732031250000000e+04
-6.063200390625000000e+04
-6.063305859375000000e+04
-6.062476562500000000e+04
-6.062735156250000000e+04
-6.063178906250000000e+04
-6.063391406250000000e+04
-6.063366015625000000e+04
-6.063409765625000000e+04
-6.063033203125000000e+04
-6.062910156250000000e+04
-6.062777734375000000e+04
-6.062975781250000000e+04
-6.064717187500000000e+04
-6.064221484375000000e+04
-6.063415625000000000e+04
-6.062928906250000000e+04
-6.062986328125000000e+04
-6.063471875000000000e+04
-6.063081250000000000e+04
-6.063002343750000000e+04
-6.062873828125000000e+04
-6.062661328125000000e+04
-6.062501562500000000e+04
-6.062794531250000000e+04
-6.062627734375000000e+04
-6.062624609375000000e+04
-6.062497656250000000e+04
-6.062590234375000000e+04
-6.062554296875000000e+04
-6.062697656250000000e+04
-6.062914843750000000e+04
-6.062547265625000000e+04
-6.062862500000000000e+04
-6.063191796875000000e+04
-6.065364062500000000e+04
-6.064941015625000000e+04
-6.063935546875000000e+04
-6.063489453125000000e+04
-6.062371875000000000e+04
-6.061357421875000000e+04
-6.062105078125000000e+04
-6.061758593750000000e+04
-6.061824218750000000e+04
-6.061081250000000000e+04
-6.060860156250000000e+04
-6.061274609375000000e+04
-6.061586718750000000e+04
-6.060898046875000000e+04
-6.061133984375000000e+04
-6.061825390625000000e+04
-6.061921093750000000e+04
-6.061334765625000000e+04
-6.061375390625000000e+04
-6.061033984375000000e+04
-6.060894140625000000e+04
-6.061546484375000000e+04
-6.061427343750000000e+04
-6.061187890625000000e+04
-6.061016796875000000e+04
-6.060917578125000000e+04
-6.061071875000000000e+04
-6.061160156250000000e+04
-6.061301562500000000e+04
-6.060735546875000000e+04
-6.065170703125000000e+04
-6.064101953125000000e+04
-6.062217187500000000e+04
-6.061762500000000000e+04
-6.061848046875000000e+04
-6.061354296875000000e+04
-6.061976562500000000e+04
-6.061698437500000000e+04
-6.061689062500000000e+04
-6.061967578125000000e+04
-6.061666796875000000e+04
-6.061332031250000000e+04
-6.061481250000000000e+04
-6.061963281250000000e+04
-6.062073046875000000e+04
-6.061993359375000000e+04
-6.061402343750000000e+04
-6.061519140625000000e+04
-6.061030078125000000e+04
-6.060497265625000000e+04
-6.060919921875000000e+04
-6.061183984375000000e+04
-6.061737500000000000e+04
-6.061376171875000000e+04
-6.061416796875000000e+04
-6.061009765625000000e+04
-6.061424609375000000e+04
-6.061337109375000000e+04
-6.061397656250000000e+04
-6.061142187500000000e+04
-6.060883984375000000e+04
-6.066742578125000000e+04
-6.065928906250000000e+04
-6.065289453125000000e+04
-6.065379687500000000e+04
-6.065174609375000000e+04
-6.065131250000000000e+04
-6.065173828125000000e+04
-6.064782812500000000e+04
-6.064837109375000000e+04
-6.064821093750000000e+04
-6.064857812500000000e+04
-6.064755078125000000e+04
-6.064316015625000000e+04
-6.064422265625000000e+04
-6.064384375000000000e+04
-6.064619921875000000e+04
-6.064725000000000000e+04
-6.064672265625000000e+04
-6.064338671875000000e+04
-6.064323437500000000e+04
-6.064810156250000000e+04
-6.064625000000000000e+04
-6.064763671875000000e+04
-6.064676171875000000e+04
-6.064520312500000000e+04
-6.064469531250000000e+04
-6.069468359375000000e+04
-6.066534765625000000e+04
-6.065856640625000000e+04
-6.065283984375000000e+04
-6.064915234375000000e+04
-6.064445703125000000e+04
-6.064860546875000000e+04
-6.065124609375000000e+04
-6.064869921875000000e+04
-6.064893359375000000e+04
-6.064864453125000000e+04
-6.064608984375000000e+04
-6.064663281250000000e+04
-6.064687109375000000e+04
-6.064826562500000000e+04
-6.064702734375000000e+04
-6.064828906250000000e+04
-6.064934375000000000e+04
-6.064984375000000000e+04
-6.065126171875000000e+04
-6.065645312500000000e+04
-6.064753125000000000e+04
-6.063242187500000000e+04
-6.063127343750000000e+04
-6.063951562500000000e+04
-6.063810546875000000e+04
-6.063199218750000000e+04
-6.063353515625000000e+04
-6.063502734375000000e+04
-6.063113671875000000e+04
-6.063594921875000000e+04
-6.063681250000000000e+04
-6.063192968750000000e+04
-6.063164453125000000e+04
-6.063174218750000000e+04
-6.062922656250000000e+04
-6.069468359375000000e+04
-6.063829687500000000e+04
-6.063382812500000000e+04
-6.063069531250000000e+04
-6.063134765625000000e+04
-6.063227734375000000e+04
-6.063026562500000000e+04
-6.062817578125000000e+04
-6.062917187500000000e+04
-6.063009765625000000e+04
-6.063453515625000000e+04
-6.062975000000000000e+04
-6.062559765625000000e+04
-6.062820703125000000e+04
-6.063039453125000000e+04
-6.063056250000000000e+04
-6.062999218750000000e+04
-6.063316796875000000e+04
-6.063453125000000000e+04
-6.063471875000000000e+04
-6.063196484375000000e+04
-6.063309765625000000e+04
-6.069468359375000000e+04
-6.063596484375000000e+04
-6.062663671875000000e+04
-6.062127734375000000e+04
-6.061550000000000000e+04
-6.061017578125000000e+04
-6.061636328125000000e+04
-6.061856640625000000e+04
-6.062088671875000000e+04
-6.061200390625000000e+04
-6.060950000000000000e+04
-6.061082812500000000e+04
-6.061065234375000000e+04
-6.061245703125000000e+04
-6.060783984375000000e+04
-6.061118750000000000e+04
-6.060968359375000000e+04
-6.060591406250000000e+04
-6.060894531250000000e+04
-6.061216796875000000e+04
-6.060946093750000000e+04
-6.061740625000000000e+04
-6.061155078125000000e+04
-6.061146093750000000e+04
-6.060771875000000000e+04
-6.061746093750000000e+04
-6.061032812500000000e+04
-6.060879687500000000e+04
-6.060524609375000000e+04
-6.061263671875000000e+04
-6.061391406250000000e+04
-6.061316015625000000e+04
-6.061210937500000000e+04
-6.060960546875000000e+04
-6.060722656250000000e+04
-6.060827343750000000e+04
-6.061157421875000000e+04
-6.069468359375000000e+04
-6.065719921875000000e+04
-6.064283203125000000e+04
-6.063132421875000000e+04
-6.061943359375000000e+04
-6.061747265625000000e+04
-6.061870703125000000e+04
-6.062099609375000000e+04
-6.061976953125000000e+04
-6.061504296875000000e+04
-6.061440625000000000e+04
-6.061307031250000000e+04
-6.061401171875000000e+04
-6.061430468750000000e+04
-6.061419921875000000e+04
-6.061176953125000000e+04
-6.061628906250000000e+04
-6.061617578125000000e+04
-6.061742968750000000e+04
-6.061988281250000000e+04
-6.061236718750000000e+04
-6.061642578125000000e+04
-6.061458203125000000e+04
-6.061007812500000000e+04
-6.061782421875000000e+04
-6.061983984375000000e+04
-6.061464843750000000e+04
-6.062084765625000000e+04
-6.069146875000000000e+04
-6.066618750000000000e+04
-6.065873046875000000e+04
-6.064968359375000000e+04
-6.064801953125000000e+04
-6.064628125000000000e+04
-6.063994531250000000e+04
-6.064311328125000000e+04
-6.064478906250000000e+04
-6.064186718750000000e+04
-6.064043750000000000e+04
-6.064511718750000000e+04
-6.064577734375000000e+04
-6.069146875000000000e+04
-6.065723828125000000e+04
-6.065394140625000000e+04
-6.065115625000000000e+04
-6.064671093750000000e+04
-6.064969531250000000e+04
-6.064636328125000000e+04
-6.064623828125000000e+04
-6.064905468750000000e+04
-6.064725781250000000e+04
-6.064941015625000000e+04
-6.064652343750000000e+04
-6.064861328125000000e+04
-6.065039843750000000e+04
-6.066029296875000000e+04
-6.065435156250000000e+04
-6.064284765625000000e+04
-6.063474218750000000e+04
-6.063845703125000000e+04
-6.063142187500000000e+04
-6.063597656250000000e+04
-6.063207421875000000e+04
-6.062858593750000000e+04
-6.062891796875000000e+04
-6.063279687500000000e+04
-6.062807421875000000e+04
-6.063131250000000000e+04
-6.063307031250000000e+04
-6.062832812500000000e+04
-6.062830078125000000e+04
-6.062741406250000000e+04
-6.062812890625000000e+04
-6.062942578125000000e+04
-6.063069921875000000e+04
-6.063111328125000000e+04
-6.063202343750000000e+04
-6.063137109375000000e+04
-6.069146875000000000e+04
-6.063532421875000000e+04
-6.063569140625000000e+04
-6.063617187500000000e+04
-6.063458984375000000e+04
-6.063266796875000000e+04
-6.063183593750000000e+04
-6.063135937500000000e+04
-6.063180859375000000e+04
-6.062542968750000000e+04
-6.062882421875000000e+04
-6.062883593750000000e+04
-6.062784765625000000e+04
-6.062727343750000000e+04
-6.062845703125000000e+04
-6.063084375000000000e+04
-6.062886328125000000e+04
-6.062900390625000000e+04
-6.062539843750000000e+04
-6.062950390625000000e+04
-6.062912890625000000e+04
-6.062982812500000000e+04
-6.062731640625000000e+04
-6.069146875000000000e+04
-6.065701953125000000e+04
-6.064611328125000000e+04
-6.063146875000000000e+04
-6.061149609375000000e+04
-6.061331640625000000e+04
-6.061675781250000000e+04
-6.061851562500000000e+04
-6.061707421875000000e+04
-6.062040625000000000e+04
-6.061659765625000000e+04
-6.061671875000000000e+04
-6.061566406250000000e+04
-6.061757031250000000e+04
-6.061076171875000000e+04
-6.061917968750000000e+04
-6.062030468750000000e+04
-6.061739453125000000e+04
-6.061554687500000000e+04
-6.061649609375000000e+04
-6.062115625000000000e+04
-6.062020312500000000e+04
-6.061713281250000000e+04
-6.062294921875000000e+04
-6.062285937500000000e+04
-6.062034375000000000e+04
-6.061588671875000000e+04
-6.061556640625000000e+04
-6.061630859375000000e+04
-6.061592578125000000e+04
-6.061703125000000000e+04
-6.069146875000000000e+04
-6.065399609375000000e+04
-6.063821875000000000e+04
-6.063435546875000000e+04
-6.062524218750000000e+04
-6.061978125000000000e+04
-6.061563281250000000e+04
-6.061531640625000000e+04
-6.061622656250000000e+04
-6.062214453125000000e+04
-6.061823828125000000e+04
-6.061742578125000000e+04
-6.061212500000000000e+04
-6.061391406250000000e+04
-6.061665234375000000e+04
-6.061390234375000000e+04
-6.061182812500000000e+04
-6.061696093750000000e+04
-6.061470312500000000e+04
-6.061289843750000000e+04
-6.061535937500000000e+04
-6.061257421875000000e+04
-6.061322265625000000e+04
-6.061438671875000000e+04
-6.061437500000000000e+04
-6.061124218750000000e+04
-6.061240625000000000e+04
-6.061457031250000000e+04
-6.061426171875000000e+04
-6.061227734375000000e+04
-6.061272656250000000e+04
-6.061732812500000000e+04
-6.061022265625000000e+04
-6.066073437500000000e+04
-6.065692578125000000e+04
-6.065296093750000000e+04
-6.064674218750000000e+04
-6.065135156250000000e+04
-6.064384375000000000e+04
-6.064353906250000000e+04
-6.064649218750000000e+04
-6.064846484375000000e+04
-6.065215625000000000e+04
-6.064850390625000000e+04
-6.064588671875000000e+04
-6.064717968750000000e+04
-6.064521875000000000e+04
-6.064481640625000000e+04
-6.065796484375000000e+04
-6.065369921875000000e+04
-6.064737500000000000e+04
-6.064889843750000000e+04
-6.064872265625000000e+04
-6.064858203125000000e+04
-6.064696875000000000e+04
-6.064789843750000000e+04
-6.064729296875000000e+04
-6.064784375000000000e+04
-6.064953906250000000e+04
-6.064550390625000000e+04
-6.065185156250000000e+04
-6.069343359375000000e+04
-6.065114453125000000e+04
-6.063970312500000000e+04
-6.063425781250000000e+04
-6.063585546875000000e+04
-6.062949609375000000e+04
-6.062796484375000000e+04
-6.062642578125000000e+04
-6.062886328125000000e+04
-6.062595312500000000e+04
-6.062673046875000000e+04
-6.062784765625000000e+04
-6.063250390625000000e+04
-6.062526562500000000e+04
-6.062813671875000000e+04
-6.062706250000000000e+04
-6.063172265625000000e+04
-6.069343359375000000e+04
-6.064768750000000000e+04
-6.063527343750000000e+04
-6.062887109375000000e+04
-6.062591406250000000e+04
-6.063248437500000000e+04
-6.063090234375000000e+04
-6.063145703125000000e+04
-6.063082031250000000e+04
-6.063472265625000000e+04
-6.062839062500000000e+04
-6.063006250000000000e+04
-6.063366015625000000e+04
-6.063077343750000000e+04
-6.062805468750000000e+04
-6.062730078125000000e+04
-6.062930468750000000e+04
-6.062798437500000000e+04
-6.063055859375000000e+04
-6.062972656250000000e+04
-6.063180859375000000e+04
-6.063052343750000000e+04
-6.063095703125000000e+04
-6.062741796875000000e+04
-6.069343359375000000e+04
-6.065716406250000000e+04
-6.063701562500000000e+04
-6.062607812500000000e+04
-6.062261328125000000e+04
-6.061991796875000000e+04
-6.061747656250000000e+04
-6.061378125000000000e+04
-6.061422265625000000e+04
-6.061141015625000000e+04
-6.061246875000000000e+04
-6.061599609375000000e+04
-6.061010546875000000e+04
-6.061230468750000000e+04
-6.061453125000000000e+04
-6.061410546875000000e+04
-6.061702343750000000e+04
-6.061721484375000000e+04
-6.061525390625000000e+04
-6.061360156250000000e+04
-6.061346484375000000e+04
-6.061250000000000000e+04
-6.061348437500000000e+04
-6.061056250000000000e+04
-6.061253125000000000e+04
-6.061060156250000000e+04
-6.061320312500000000e+04
-6.061621093750000000e+04
-6.061223828125000000e+04
-6.061254687500000000e+04
-6.069343359375000000e+04
-6.064960156250000000e+04
-6.064058984375000000e+04
-6.063334375000000000e+04
-6.062809375000000000e+04
-6.061983984375000000e+04
-6.062384765625000000e+04
-6.062149609375000000e+04
-6.062274609375000000e+04
-6.061848828125000000e+04
-6.061327343750000000e+04
-6.061407421875000000e+04
-6.061639062500000000e+04
-6.061149218750000000e+04
-6.061197265625000000e+04
-6.060884375000000000e+04
-6.060476562500000000e+04
-6.060663281250000000e+04
-6.060813671875000000e+04
-6.060916015625000000e+04
-6.060996484375000000e+04
-6.061088281250000000e+04
-6.060850390625000000e+04
-6.060998828125000000e+04
-6.060993750000000000e+04
-6.060917578125000000e+04
-6.061357421875000000e+04
-6.061617578125000000e+04
-6.061419140625000000e+04
-6.061259375000000000e+04
-6.061140625000000000e+04
-6.061296875000000000e+04
-6.066041015625000000e+04
-6.065731640625000000e+04
-6.065218750000000000e+04
-6.064835937500000000e+04
-6.064718359375000000e+04
-6.064985937500000000e+04
-6.065063281250000000e+04
-6.064819140625000000e+04
-6.064832812500000000e+04
-6.064705078125000000e+04
-6.064644531250000000e+04
-6.064769531250000000e+04
-6.064758203125000000e+04
-6.064712500000000000e+04
-6.064775000000000000e+04
-6.064796875000000000e+04
-6.064976953125000000e+04
-6.064817578125000000e+04
-6.064676171875000000e+04
-6.064814062500000000e+04
-6.069248437500000000e+04
-6.064909375000000000e+04
-6.064802343750000000e+04
-6.065056250000000000e+04
-6.064667578125000000e+04
-6.064605468750000000e+04
-6.064511718750000000e+04
-6.064892968750000000e+04
-6.064811328125000000e+04
-6.064738281250000000e+04
-6.064511718750000000e+04
-6.064579687500000000e+04
-6.064646875000000000e+04
-6.064580078125000000e+04
-6.064982031250000000e+04
-6.064685156250000000e+04
-6.064217578125000000e+04
-6.064337109375000000e+04
-6.064479687500000000e+04
-6.064014062500000000e+04
-6.063323437500000000e+04
-6.063315234375000000e+04
-6.062936718750000000e+04
-6.063231250000000000e+04
-6.063017578125000000e+04
-6.063046875000000000e+04
-6.062850390625000000e+04
-6.062839453125000000e+04
-6.063170312500000000e+04
-6.062669140625000000e+04
-6.062846875000000000e+04
-6.069248437500000000e+04
-6.066262500000000000e+04
-6.063454687500000000e+04
-6.063559765625000000e+04
-6.063950390625000000e+04
-6.063275000000000000e+04
-6.063389843750000000e+04
-6.063578125000000000e+04
-6.063408203125000000e+04
-6.063505859375000000e+04
-6.063548437500000000e+04
-6.063427343750000000e+04
-6.063055859375000000e+04
-6.063174609375000000e+04
-6.063247656250000000e+04
-6.063395703125000000e+04
-6.063294531250000000e+04
-6.062928125000000000e+04
-6.063204296875000000e+04
-6.063426562500000000e+04
-6.063381250000000000e+04
-6.063282031250000000e+04
-6.069248437500000000e+04
-6.064545312500000000e+04
-6.063625000000000000e+04
-6.062706640625000000e+04
-6.062404687500000000e+04
-6.061842968750000000e+04
-6.061333203125000000e+04
-6.061657421875000000e+04
-6.061324218750000000e+04
-6.061568359375000000e+04
-6.061432812500000000e+04
-6.061462500000000000e+04
-6.061475390625000000e+04
-6.061589843750000000e+04
-6.061038671875000000e+04
-6.060793750000000000e+04
-6.061050781250000000e+04
-6.060896875000000000e+04
-6.061584765625000000e+04
-6.061361718750000000e+04
-6.060932812500000000e+04
-6.060795703125000000e+04
-6.061219140625000000e+04
-6.061856250000000000e+04
-6.061815625000000000e+04
-6.061702343750000000e+04
-6.061642187500000000e+04
-6.061535937500000000e+04
-6.061927343750000000e+04
-6.061434765625000000e+04
-6.061894921875000000e+04
-6.061847265625000000e+04
-6.061610546875000000e+04
-6.060950781250000000e+04
-6.069248437500000000e+04
-6.063960546875000000e+04
-6.062774218750000000e+04
-6.062180078125000000e+04
-6.061428125000000000e+04
-6.062051562500000000e+04
-6.061629687500000000e+04
-6.062149609375000000e+04
-6.062170703125000000e+04
-6.061774218750000000e+04
-6.061694921875000000e+04
-6.061644921875000000e+04
-6.061341015625000000e+04
-6.061864453125000000e+04
-6.062198828125000000e+04
-6.061807421875000000e+04
-6.061244921875000000e+04
-6.061752343750000000e+04
-6.061852734375000000e+04
-6.061271093750000000e+04
-6.061496875000000000e+04
-6.061280468750000000e+04
-6.061092187500000000e+04
-6.061282421875000000e+04
-6.061123828125000000e+04
-6.061719531250000000e+04
-6.062215234375000000e+04
-6.061789843750000000e+04
-6.069444921875000000e+04
-6.066261718750000000e+04
-6.065255468750000000e+04
-6.064721093750000000e+04
-6.065032812500000000e+04
-6.064737500000000000e+04
-6.064934765625000000e+04
-6.064524218750000000e+04
-6.064576953125000000e+04
-6.064904687500000000e+04
-6.064784765625000000e+04
-6.064668359375000000e+04
-6.064378906250000000e+04
-6.064198437500000000e+04
-6.064479296875000000e+04
-6.064268750000000000e+04
-6.064660546875000000e+04
-6.064890625000000000e+04
-6.064472656250000000e+04
-6.069444921875000000e+04
-6.066038671875000000e+04
-6.064944140625000000e+04
-6.065214843750000000e+04
-6.065036718750000000e+04
-6.064856250000000000e+04
-6.064820703125000000e+04
-6.064949609375000000e+04
-6.064666406250000000e+04
-6.064895703125000000e+04
-6.064631250000000000e+04
-6.064700781250000000e+04
-6.064664843750000000e+04
-6.064586328125000000e+04
-6.064688671875000000e+04
-6.064741406250000000e+04
-6.063894921875000000e+04
-6.063694140625000000e+04
-6.063380468750000000e+04
-6.063475000000000000e+04
-6.063411718750000000e+04
-6.063130078125000000e+04
-6.063377734375000000e+04
-6.063078515625000000e+04
-6.063358984375000000e+04
-6.063208593750000000e+04
-6.063173828125000000e+04
-6.063089843750000000e+04
-6.063018359375000000e+04
-6.062875781250000000e+04
-6.063001562500000000e+04
-6.064046875000000000e+04
-6.063703906250000000e+04
-6.063388281250000000e+04
-6.063721484375000000e+04
-6.063605078125000000e+04
-6.063103515625000000e+04
-6.063093359375000000e+04
-6.063283593750000000e+04
-6.063324609375000000e+04
-6.063315234375000000e+04
-6.063176562500000000e+04
-6.063100390625000000e+04
-6.063151171875000000e+04
-6.063092968750000000e+04
-6.062988671875000000e+04
-6.062723828125000000e+04