6.532365417480468750e+01 1.758470153808593750e+01 1.558926010131835938e+01 1.758470153808593750e+01 6.030271148681640625e+01 2.250943756103515625e+01 1.558926010131835938e+01 2.250943756103515625e+01 9.914144134521484375e+01
-5.679632949829101562e+01 3.812361240386962891e+00 4.178557872772216797e+00 3.812361240386962891e+00 -4.419261550903320312e+01 3.672989368438720703e+00 4.178557872772216797e+00 3.672989368438720703e+00 -4.445082473754882812e+01
-6.068818283081054688e+01 9.402990341186523438e+00 -1.261679935455322266e+01 9.402990341186523438e+00 -3.463324356079101562e+01 7.199848175048828125e+00 -1.261679935455322266e+01 7.199848175048828125e+00 -2.631620979309082031e+01
-6.686730861663818359e+00 7.989589214324951172e+00 -4.594155311584472656e+00 7.989589214324951172e+00 -2.799305534362792969e+01 -3.708297729492187500e+00 -4.594155311584472656e+00 -3.708297729492187500e+00 -1.755578804016113281e+01
-3.059948158264160156e+01 -1.780369186401367188e+01 -1.150929069519042969e+01 -1.780369186401367188e+01 -4.558248901367187500e+01 6.508804321289062500e+00 -1.150929069519042969e+01 6.508804321289062500e+00 6.122039318084716797e+00
-3.076000595092773438e+01 1.276630043983459473e+00 -4.127412796020507812e+00 1.276630043983459473e+00 -1.666672897338867188e+01 1.019791889190673828e+01 -4.127412796020507812e+00 1.019791889190673828e+01 5.444965139031410217e-02
-2.914349746704101562e+01 1.420717525482177734e+01 -9.814332962036132812e+00 1.420717525482177734e+01 -1.587056446075439453e+01 -5.526870250701904297e+00 -9.814332962036132812e+00 -5.526870250701904297e+00 -1.529615211486816406e+01
-1.538647890090942383e+00 2.867314338684082031e+00 -1.732873916625976562e+01 2.867314338684082031e+00 -1.249931335449218750e+01 3.144766569137573242e+00 -1.732873916625976562e+01 3.144766569137573242e+00 3.018646717071533203e+00
-5.217843627929687500e+01 -3.765620470046997070e+00 -1.358428001403808594e+01 -3.765620470046997070e+00 -1.885779190063476562e+01 -1.050056457519531250e+01 -1.358428001403808594e+01 -1.050056457519531250e+01 -1.984782028198242188e+01
-2.556159019470214844e+01 1.231623268127441406e+01 -1.672270393371582031e+01 1.231623268127441406e+01 -3.196326446533203125e+01 1.180017852783203125e+01 -1.672270393371582031e+01 1.180017852783203125e+01 -4.206979751586914062e+01
-2.283746147155761719e+01 1.426535987854003906e+01 5.666803836822509766e+00 1.426535987854003906e+01 -2.671036338806152344e+01 1.011403369903564453e+01 5.666803836822509766e+00 1.011403369903564453e+01 -3.716852188110351562e+01
-1.081921100616455078e+01 1.896793603897094727e+00 -1.398444938659667969e+01 1.896793603897094727e+00 -2.518734359741210938e+01 -4.020832538604736328e+00 -1.398444938659667969e+01 -4.020832538604736328e+00 8.955582618713378906e+00
-2.005428695678710938e+01 1.403652381896972656e+01 -3.557468891143798828e+00 1.403652381896972656e+01 -2.465917587280273438e+01 -1.969976067543029785e+00 -3.557468891143798828e+00 -1.969976067543029785e+00 -1.922279548645019531e+01
-6.006626605987548828e+00 4.945521354675292969e+00 4.712553977966308594e+00 4.945521354675292969e+00 -1.534436607360839844e+01 8.592265129089355469e+00 4.712553977966308594e+00 8.592265129089355469e+00 1.112391090393066406e+01
-9.778132438659667969e+00 3.254599094390869141e+00 2.703001260757446289e+00 3.254599094390869141e+00 -4.661302566528320312e+01 -3.829774141311645508e+00 2.703001260757446289e+00 -3.829774141311645508e+00 -6.986093521118164062e-01
-4.574917316436767578e+00 1.747669935226440430e+00 -1.354178309440612793e+00 1.747669935226440430e+00 -2.896552276611328125e+01 9.036875367164611816e-01 -1.354178309440612793e+00 9.036875367164611816e-01 -1.250383949279785156e+01
-9.361837387084960938e+00 1.323889541625976562e+01 -5.776380062103271484e+00 1.323889541625976562e+01 -3.842137908935546875e+01 -1.521333217620849609e+00 -5.776380062103271484e+00 -1.521333217620849609e+00 -3.311493873596191406e+00
6.532365417480468750e+01 1.758470153808593750e+01 1.558926010131835938e+01 1.758470153808593750e+01 6.030271148681640625e+01 2.250943756103515625e+01 1.558926010131835938e+01 2.250943756103515625e+01 9.914144134521484375e+01
-5.354898834228515625e+01 -5.992987632751464844e+00 -2.298090457916259766e-01 -5.992987632751464844e+00 -1.019197559356689453e+01 1.157278633117675781e+01 -2.298090457916259766e-01 1.157278633117675781e+01 -5.249215698242187500e+01
1.490290760993957520e+00 -2.418342351913452148e+00 7.047514438629150391e+00 -2.418342351913452148e+00 -2.009048843383789062e+01 -4.980999946594238281e+00 7.047514438629150391e+00 -4.980999946594238281e+00 -1.575113773345947266e+01
-2.263187217712402344e+01 -8.590377807617187500e+00 4.792088031768798828e+00 -8.590377807617187500e+00 -4.228353500366210938e+01 1.614323258399963379e+00 4.792088031768798828e+00 1.614323258399963379e+00 -5.024121856689453125e+01
-2.837079811096191406e+01 2.145956420898437500e+01 -7.097369670867919922e+00 2.145956420898437500e+01 -3.639417266845703125e+01 -5.279045104980468750e+00 -7.097369670867919922e+00 -5.279045104980468750e+00 -6.743807792663574219e+00
-1.467094516754150391e+01 1.036198854446411133e+00 1.651016807556152344e+01 1.036198854446411133e+00 -3.408817672729492188e+01 -6.457190513610839844e-01 1.651016807556152344e+01 -6.457190513610839844e-01 -1.376529788970947266e+01
-1.390604496002197266e+01 2.265230941772460938e+01 1.253764390945434570e+00 2.265230941772460938e+01 -4.398989486694335938e+01 7.466413497924804688e+00 1.253764390945434570e+00 7.466413497924804688e+00 1.026106166839599609e+01
-2.602989006042480469e+01 -1.059363842010498047e+01 9.829952239990234375e+00 -1.059363842010498047e+01 -1.363443470001220703e+01 7.211296558380126953e+00 9.829952239990234375e+00 7.211296558380126953e+00 -3.054847145080566406e+01
-3.739273071289062500e+01 -4.749348163604736328e+00 3.468155145645141602e+00 -4.749348163604736328e+00 -3.726733016967773438e+01 -6.654376983642578125e-01 3.468155145645141602e+00 -6.654376983642578125e-01 -3.174426651000976562e+01
-4.544229507446289062e+00 5.858900547027587891e-01 -1.928066849708557129e+00 5.858900547027587891e-01 -2.306775093078613281e+01 -6.463620066642761230e-01 -1.928066849708557129e+00 -6.463620066642761230e-01 1.604222059249877930e+00
-4.433267593383789062e+01 -1.787386655807495117e+00 -4.000014662742614746e-01 -1.787386655807495117e+00 -1.411617183685302734e+01 2.574129581451416016e+00 -4.000014662742614746e-01 2.574129581451416016e+00 -7.615729808807373047e+00
2.242795181274414062e+01 -4.859456539154052734e+00 1.262230777740478516e+01 -4.859456539154052734e+00 -1.440350246429443359e+01 4.941831111907958984e+00 1.262230777740478516e+01 4.941831111907958984e+00 -2.434359169006347656e+01
-5.404478073120117188e+01 7.304118156433105469e+00 1.394194507598876953e+01 7.304118156433105469e+00 -3.850775146484375000e+01 -2.518692910671234131e-01 1.394194507598876953e+01 -2.518692910671234131e-01 -1.396846199035644531e+01
-9.111422896385192871e-01 1.248127365112304688e+01 -1.089975643157958984e+01 1.248127365112304688e+01 -3.155715370178222656e+01 -7.456475734710693359e+00 -1.089975643157958984e+01 -7.456475734710693359e+00 -1.442802047729492188e+01
-4.041958999633789062e+01 -5.595045566558837891e+00 3.181822299957275391e+00 -5.595045566558837891e+00 -3.486675262451171875e+01 1.129450798034667969e+01 3.181822299957275391e+00 1.129450798034667969e+01 -3.972670745849609375e+01
-1.859424400329589844e+01 1.151009845733642578e+01 6.033119678497314453e+00 1.151009845733642578e+01 -2.884624671936035156e+01 1.766134977340698242e+00 6.033119678497314453e+00 1.766134977340698242e+00 -2.279316711425781250e+01
-3.460875701904296875e+01 5.549242496490478516e+00 5.714142799377441406e+00 5.549242496490478516e+00 -2.273623466491699219e+01 -3.115717887878417969e+00 5.714142799377441406e+00 -3.115717887878417969e+00 9.570961952209472656e+00
-2.527433395385742188e+01 3.149558305740356445e-01 3.465785264968872070e+00 3.149558305740356445e-01 -3.291991806030273438e+01 -5.308874130249023438e+00 3.465785264968872070e+00 -5.308874130249023438e+00 -1.137595462799072266e+01
5.566884517669677734e+00 1.214715957641601562e+01 -3.295919418334960938e+00 1.214715957641601562e+01 -1.548344802856445312e+01 4.557765960693359375e+00 -3.295919418334960938e+00 4.557765960693359375e+00 -1.631927680969238281e+01
-4.677685737609863281e+00 1.517992591857910156e+01 -1.004096508026123047e+01 1.517992591857910156e+01 -3.030109024047851562e+01 -8.089827537536621094e+00 -1.004096508026123047e+01 -8.089827537536621094e+00 -1.793210601806640625e+01
-5.531514739990234375e+01 -2.367058992385864258e+00 7.731727123260498047e+00 -2.367058992385864258e+00 -4.037268447875976562e+01 6.793465137481689453e+00 7.731727123260498047e+00 6.793465137481689453e+00 4.164696216583251953e+00
-2.366575241088867188e+00 6.734793663024902344e+00 4.231543540954589844e+00 6.734793663024902344e+00 -2.124028015136718750e+01 6.601040363311767578e+00 4.231543540954589844e+00 6.601040363311767578e+00 -1.034044456481933594e+01
6.532365417480468750e+01 1.758470153808593750e+01 1.558926010131835938e+01 1.758470153808593750e+01 6.030271148681640625e+01 2.250943756103515625e+01 1.558926010131835938e+01 2.250943756103515625e+01 9.914144134521484375e+01
-3.991145706176757812e+01 5.549020290374755859e+00 -1.801326036453247070e+00 5.549020290374755859e+00 -4.124730300903320312e+01 5.030223846435546875e+00 -1.801326036453247070e+00 5.030223846435546875e+00 -7.971499443054199219e+00
-3.961358261108398438e+01 2.185526609420776367e+00 5.990424156188964844e+00 2.185526609420776367e+00 -4.664411926269531250e+01 6.867887496948242188e+00 5.990424156188964844e+00 6.867887496948242188e+00 -1.284630680084228516e+01
-6.476087951660156250e+01 9.404740333557128906e+00 -4.018698692321777344e+00 9.404740333557128906e+00 -1.777197265625000000e+01 8.075230598449707031e+00 -4.018698692321777344e+00 8.075230598449707031e+00 -2.366401672363281250e+01
-2.245930671691894531e+01 1.615488052368164062e+01 -9.125954627990722656e+00 1.615488052368164062e+01 -4.607499694824218750e+01 1.741774368286132812e+01 -9.125954627990722656e+00 1.741774368286132812e+01 -3.098277473449707031e+01
-2.964203834533691406e+01 -1.296393299102783203e+01 8.724123954772949219e+00 -1.296393299102783203e+01 -4.269286727905273438e+01 7.856683731079101562e+00 8.724123954772949219e+00 7.856683731079101562e+00 -4.053789520263671875e+01
-9.897150993347167969e+00 2.276752710342407227e+00 7.502168178558349609e+00 2.276752710342407227e+00 -1.597354698181152344e+01 9.224458694458007812e+00 7.502168178558349609e+00 9.224458694458007812e+00 -2.234474754333496094e+01
-6.329541778564453125e+01 7.738760471343994141e+00 2.071427917480468750e+01 7.738760471343994141e+00 -3.542276000976562500e+01 -8.890542030334472656e+00 2.071427917480468750e+01 -8.890542030334472656e+00 -5.096191024780273438e+01
-7.356273651123046875e+00 1.623968720436096191e+00 1.073315620422363281e+01 1.623968720436096191e+00 -3.118807029724121094e+01 -1.883955955505371094e+01 1.073315620422363281e+01 -1.883955955505371094e+01 -4.895465469360351562e+01
-3.020573043823242188e+01 -4.838128566741943359e+00 1.117511630058288574e+00 -4.838128566741943359e+00 -1.326069641113281250e+01 -4.185935497283935547e+00 1.117511630058288574e+00 -4.185935497283935547e+00 -2.885400772094726562e+01
-3.681442642211914062e+01 -1.575000858306884766e+01 -1.687652969360351562e+01 -1.575000858306884766e+01 -1.475343704223632812e+01 2.054108238220214844e+01 -1.687652969360351562e+01 2.054108238220214844e+01 -3.633491516113281250e+01
-1.256113529205322266e+01 2.888389587402343750e+00 9.783549904823303223e-01 2.888389587402343750e+00 -3.361046981811523438e+01 6.552840709686279297e+00 9.783549904823303223e-01 6.552840709686279297e+00 -5.138397979736328125e+01
-1.904481697082519531e+01 -5.733876705169677734e+00 3.243330240249633789e+00 -5.733876705169677734e+00 -3.041123771667480469e+01 -1.305763244628906250e+01 3.243330240249633789e+00 -1.305763244628906250e+01 -2.325225639343261719e+01
-4.915092849731445312e+01 -1.192306709289550781e+01 1.362501144409179688e+01 -1.192306709289550781e+01 -2.869648551940917969e+01 8.862946510314941406e+00 1.362501144409179688e+01 8.862946510314941406e+00 -1.163002848625183105e+00
-1.850066757202148438e+01 2.056416130065917969e+01 6.837373256683349609e+00 2.056416130065917969e+01 -5.091626739501953125e+01 1.625803184509277344e+01 6.837373256683349609e+00 1.625803184509277344e+01 -3.816872024536132812e+01
-1.424929904937744141e+01 -6.382609367370605469e+00 -5.057381629943847656e+00 -6.382609367370605469e+00 -3.339856338500976562e+01 -6.877979755401611328e+00 -5.057381629943847656e+00 -6.877979755401611328e+00 -1.237836933135986328e+01
-1.109102630615234375e+01 -1.887325763702392578e+00 -5.957564353942871094e+00 -1.887325763702392578e+00 -2.756899452209472656e+01 2.310012102127075195e+00 -5.957564353942871094e+00 2.310012102127075195e+00 -6.117766189575195312e+01
-4.471406173706054688e+01 1.248735785484313965e+00 2.001250267028808594e+00 1.248735785484313965e+00 -4.031493759155273438e+01 2.056680297851562500e+01 2.001250267028808594e+00 2.056680297851562500e+01 -3.942041778564453125e+01
-1.170847225189208984e+01 -1.469462680816650391e+01 6.134019374847412109e+00 -1.469462680816650391e+01 -4.387406158447265625e+01 -1.560931587219238281e+01 6.134019374847412109e+00 -1.560931587219238281e+01 -3.991400146484375000e+01
-5.095336151123046875e+01 -1.428211498260498047e+01 1.535496425628662109e+01 -1.428211498260498047e+01 -3.716372680664062500e+01 1.374545812606811523e+00 1.535496425628662109e+01 1.374545812606811523e+00 -7.778237915039062500e+01
-7.119885253906250000e+01 -4.149319171905517578e+00 1.689291954040527344e+00 -4.149319171905517578e+00 -7.638567352294921875e+01 1.580719566345214844e+01 1.689291954040527344e+00 1.580719566345214844e+01 -2.122247695922851562e+01
-1.165996456146240234e+01 -5.090321063995361328e+00 1.463453388214111328e+01 -5.090321063995361328e+00 -1.368931579589843750e+01 -1.888675451278686523e+00 1.463453388214111328e+01 -1.888675451278686523e+00 -2.054722023010253906e+01
6.532365417480468750e+01 1.758470153808593750e+01 1.558926010131835938e+01 1.758470153808593750e+01 6.030271148681640625e+01 2.250943756103515625e+01 1.558926010131835938e+01 2.250943756103515625e+01 9.914144134521484375e+01
-6.163168716430664062e+01 1.311854124069213867e+00 9.911696434020996094e+00 1.311854124069213867e+00 -3.561883544921875000e+01 9.084310531616210938e+00 9.911696434020996094e+00 9.084310531616210938e+00 -1.368008613586425781e+01
-1.035100460052490234e+01 2.077180290222167969e+01 1.931584715843200684e+00 2.077180290222167969e+01 -2.586571884155273438e+01 -7.550392150878906250e+00 1.931584715843200684e+00 -7.550392150878906250e+00 1.032096743583679199e+00
-3.291507244110107422e+00 -2.077991008758544922e+00 1.303127384185791016e+01 -2.077991008758544922e+00 -3.925776290893554688e+01 1.284433245658874512e+00 1.303127384185791016e+01 1.284433245658874512e+00 -3.130115890502929688e+01
-2.159754562377929688e+01 6.468790054321289062e+00 -1.987537574768066406e+01 6.468790054321289062e+00 -2.689851760864257812e+01 2.473437309265136719e+00 -1.987537574768066406e+01 2.473437309265136719e+00 -1.736788177490234375e+01
-2.907148551940917969e+01 -2.394469976425170898e+00 -1.250720119476318359e+01 -2.394469976425170898e+00 -4.955923461914062500e+01 9.939846992492675781e+00 -1.250720119476318359e+01 9.939846992492675781e+00 -4.275262832641601562e+01
-1.312229251861572266e+01 -5.461847782135009766e+00 -8.199244499206542969e+00 -5.461847782135009766e+00 -3.371075439453125000e+01 4.557698071002960205e-01 -8.199244499206542969e+00 4.557698071002960205e-01 -1.845190429687500000e+01
-1.863769912719726562e+01 3.529296398162841797e+00 4.930067062377929688e+00 3.529296398162841797e+00 -4.803196334838867188e+01 -6.738351821899414062e+00 4.930067062377929688e+00 -6.738351821899414062e+00 -1.554393577575683594e+01
4.026384830474853516e+00 7.516230583190917969e+00 -1.028901290893554688e+01 7.516230583190917969e+00 -2.506067657470703125e+01 -1.216594934463500977e+00 -1.028901290893554688e+01 -1.216594934463500977e+00 -2.313321304321289062e+01
-2.228412818908691406e+01 -9.548467636108398438e+00 -3.810923099517822266e+00 -9.548467636108398438e+00 -2.497074699401855469e+01 8.730940818786621094e+00 -3.810923099517822266e+00 8.730940818786621094e+00 -3.467097091674804688e+01
-1.869852066040039062e+01 4.830639362335205078e+00 -2.274336433410644531e+01 4.830639362335205078e+00 -2.005332756042480469e+01 -4.155184030532836914e-01 -2.274336433410644531e+01 -4.155184030532836914e-01 -3.167536544799804688e+01
-1.559906673431396484e+01 8.124167442321777344e+00 -9.307066917419433594e+00 8.124167442321777344e+00 -1.236902618408203125e+01 -9.233077764511108398e-01 -9.307066917419433594e+00 -9.233077764511108398e-01 -1.744437980651855469e+01
-3.393858337402343750e+01 -2.237596273422241211e+00 -1.192789268493652344e+01 -2.237596273422241211e+00 -2.736408615112304688e+01 -1.301577663421630859e+01 -1.192789268493652344e+01 -1.301577663421630859e+01 -4.594354248046875000e+01
-3.165104484558105469e+01 5.362161159515380859e+00 -3.748594522476196289e+00 5.362161159515380859e+00 -6.065631866455078125e+01 1.696753311157226562e+01 -3.748594522476196289e+00 1.696753311157226562e+01 -3.784364700317382812e+01
-3.665081024169921875e+01 6.021221354603767395e-02 -6.040154933929443359e+00 6.021221354603767395e-02 -3.381647872924804688e+01 -6.610397338867187500e+00 -6.040154933929443359e+00 -6.610397338867187500e+00 -2.798390007019042969e+01
-1.405966663360595703e+01 -7.890044689178466797e+00 -2.326539754867553711e-01 -7.890044689178466797e+00 -1.431333923339843750e+01 1.810750365257263184e+00 -2.326539754867553711e-01 1.810750365257263184e+00 -1.561221694946289062e+01
-4.940143966674804688e+01 6.691142082214355469e+00 -5.546963691711425781e+00 6.691142082214355469e+00 -4.340306091308593750e+01 8.433598875999450684e-01 -5.546963691711425781e+00 8.433598875999450684e-01 -6.125236511230468750e+01
1.497135353088378906e+01 -1.045300865173339844e+01 -2.433244466781616211e+00 -1.045300865173339844e+01 5.599011421203613281e+00 2.510947942733764648e+00 -2.433244466781616211e+00 2.510947942733764648e+00 -4.757250249385833740e-01
-2.474418830871582031e+01 -1.005515098571777344e+01 -9.619494438171386719e+00 -1.005515098571777344e+01 -2.521586990356445312e+01 1.628051567077636719e+01 -9.619494438171386719e+00 1.628051567077636719e+01 -1.687185668945312500e+01
6.532365417480468750e+01 1.758470153808593750e+01 1.558926010131835938e+01 1.758470153808593750e+01 6.030271148681640625e+01 2.250943756103515625e+01 1.558926010131835938e+01 2.250943756103515625e+01 9.914144134521484375e+01
-3.868067264556884766e+00 1.413418483734130859e+01 4.102722644805908203e+00 1.413418483734130859e+01 -1.073639011383056641e+01 2.150164842605590820e-01 4.102722644805908203e+00 2.150164842605590820e-01 -8.244935035705566406e+00
-1.606330108642578125e+01 -2.169000053405761719e+01 9.026858329772949219e+00 -2.169000053405761719e+01 -4.761340332031250000e+01 1.048941230773925781e+01 9.026858329772949219e+00 1.048941230773925781e+01 -1.763999938964843750e+01
-3.243148040771484375e+01 7.040166854858398438e-01 1.261298656463623047e+01 7.040166854858398438e-01 -4.081615829467773438e+01 1.920429992675781250e+01 1.261298656463623047e+01 1.920429992675781250e+01 9.434200286865234375e+00
-2.014303016662597656e+01 -8.158166885375976562e+00 -8.709415435791015625e+00 -8.158166885375976562e+00 -3.463728332519531250e+01 -1.894607543945312500e+01 -8.709415435791015625e+00 -1.894607543945312500e+01 -5.363672256469726562e+01
-3.814491271972656250e+01 7.349648952484130859e+00 9.013586997985839844e+00 7.349648952484130859e+00 -3.443143081665039062e+01 1.091201210021972656e+01 9.013586997985839844e+00 1.091201210021972656e+01 -3.903373718261718750e+01
-4.167505645751953125e+01 -1.088286209106445312e+01 -6.989108562469482422e+00 -1.088286209106445312e+01 -2.789024353027343750e+01 1.451171517372131348e+00 -6.989108562469482422e+00 1.451171517372131348e+00 -5.540046310424804688e+01
-2.255719947814941406e+01 -1.320966339111328125e+01 -8.373021125793457031e+00 -1.320966339111328125e+01 4.516583442687988281e+00 1.653912353515625000e+01 -8.373021125793457031e+00 1.653912353515625000e+01 -3.413679504394531250e+01
-1.931118392944335938e+01 -1.110262870788574219e+01 -5.011528491973876953e+00 -1.110262870788574219e+01 -1.897645568847656250e+01 -1.315513229370117188e+01 -5.011528491973876953e+00 -1.315513229370117188e+01 -5.035755920410156250e+01
-5.323026275634765625e+01 9.249751091003417969e+00 2.550787925720214844e+01 9.249751091003417969e+00 -4.734531021118164062e+01 1.112921428680419922e+01 2.550787925720214844e+01 1.112921428680419922e+01 -2.341191673278808594e+01
-2.790624427795410156e+01 1.014329433441162109e+01 5.691211223602294922e+00 1.014329433441162109e+01 6.179531097412109375e+00 2.053878974914550781e+01 5.691211223602294922e+00 2.053878974914550781e+01 -3.412945556640625000e+01
-3.399058914184570312e+01 1.237609291076660156e+01 -1.715792655944824219e+00 1.237609291076660156e+01 -5.479373168945312500e+01 6.030327320098876953e+00 -1.715792655944824219e+00 6.030327320098876953e+00 -4.713490295410156250e+01
-4.437548446655273438e+01 6.019124031066894531e+00 -1.480211448669433594e+01 6.019124031066894531e+00 -2.998282623291015625e+01 1.119659137725830078e+01 -1.480211448669433594e+01 1.119659137725830078e+01 -5.053673934936523438e+01
-2.703027534484863281e+01 -2.189340782165527344e+01 -1.118761253356933594e+01 -2.189340782165527344e+01 8.683224678039550781e+00 3.127095460891723633e+00 -1.118761253356933594e+01 3.127095460891723633e+00 -1.693702888488769531e+01
-3.459534454345703125e+01 3.521701335906982422e+00 -1.115376949310302734e+01 3.521701335906982422e+00 -2.645373916625976562e+01 6.620615959167480469e+00 -1.115376949310302734e+01 6.620615959167480469e+00 -5.252027511596679688e+01
-3.326364898681640625e+01 2.306869697570800781e+01 -1.470138168334960938e+01 2.306869697570800781e+01 -6.332432556152343750e+01 1.086226940155029297e+01 -1.470138168334960938e+01 1.086226940155029297e+01 -4.470962524414062500e+01
-2.061906099319458008e+00 -2.649385929107666016e+00 -4.816466569900512695e-01 -2.649385929107666016e+00 -1.843383598327636719e+01 3.340939760208129883e+00 -4.816466569900512695e-01 3.340939760208129883e+00 -2.557639884948730469e+01
-2.731042289733886719e+01 -6.896477341651916504e-01 2.566072463989257812e+00 -6.896477341651916504e-01 -1.219884681701660156e+01 -2.478713750839233398e+00 2.566072463989257812e+00 -2.478713750839233398e+00 -4.794217300415039062e+01
-1.860709667205810547e+00 1.114551258087158203e+01 9.340103268623352051e-01 1.114551258087158203e+01 -1.477569770812988281e+01 1.349601840972900391e+01 9.340103268623352051e-01 1.349601840972900391e+01 -1.850502777099609375e+01
-1.745816230773925781e+01 -5.657586574554443359e+00 -7.941991686820983887e-01 -5.657586574554443359e+00 -2.949446105957031250e+01 8.169147968292236328e-01 -7.941991686820983887e-01 8.169147968292236328e-01 -4.615251159667968750e+01
-5.988069534301757812e+01 -1.211768817901611328e+01 -1.339277553558349609e+01 -1.211768817901611328e+01 -5.041045761108398438e+01 7.987596988677978516e+00 -1.339277553558349609e+01 7.987596988677978516e+00 -5.172071075439453125e+01
-1.781380081176757812e+01 -9.209968566894531250e+00 1.277316570281982422e+01 -9.209968566894531250e+00 -1.918053245544433594e+01 -1.322386932373046875e+01 1.277316570281982422e+01 -1.322386932373046875e+01 -8.316059112548828125e+00
-5.969876480102539062e+01 -1.895779228210449219e+01 -6.487828254699707031e+00 -1.895779228210449219e+01 -1.209360599517822266e+01 6.744851589202880859e+00 -6.487828254699707031e+00 6.744851589202880859e+00 -6.241531372070312500e+01
-4.233767318725585938e+01 -7.828502655029296875e+00 9.077439308166503906e+00 -7.828502655029296875e+00 -3.712555694580078125e+01 -9.166334152221679688e+00 9.077439308166503906e+00 -9.166334152221679688e+00 -4.381158447265625000e+01
-2.423146247863769531e+01 -1.854330444335937500e+01 9.948134422302246094e+00 -1.854330444335937500e+01 -7.484356880187988281e+00 -2.409551811218261719e+01 9.948134422302246094e+00 -2.409551811218261719e+01 -2.206170654296875000e+01
-5.304618072509765625e+01 -1.766580390930175781e+01 -1.914173507690429688e+01 -1.766580390930175781e+01 -2.840379905700683594e+01 -3.799824476242065430e+00 -1.914173507690429688e+01 -3.799824476242065430e+00 -5.066609573364257812e+01
-3.220851898193359375e+01 -3.803899526596069336e+00 -5.945428848266601562e+00 -3.803899526596069336e+00 -4.191559219360351562e+01 1.879416275024414062e+01 -5.945428848266601562e+00 1.879416275024414062e+01 -3.998703765869140625e+01
6.532365417480468750e+01 1.758470153808593750e+01 1.558926010131835938e+01 1.758470153808593750e+01 6.030271148681640625e+01 2.250943756103515625e+01 1.558926010131835938e+01 2.250943756103515625e+01 9.914144134521484375e+01
-5.621809387207031250e+01 9.542501449584960938e+00 -7.067739963531494141e+00 9.542501449584960938e+00 -4.299562835693359375e+01 7.393394112586975098e-01 -7.067739963531494141e+00 7.393394112586975098e-01 -5.443525314331054688e+01
-4.239923477172851562e+01 -2.107941150665283203e+00 2.534699440002441406e+00 -2.107941150665283203e+00 -4.238092422485351562e+01 1.097985267639160156e+01 2.534699440002441406e+00 1.097985267639160156e+01 -4.034064483642578125e+01
-5.893988418579101562e+01 7.477917671203613281e+00 -1.304909229278564453e+01 7.477917671203613281e+00 -4.674385070800781250e+01 2.474882125854492188e+01 -1.304909229278564453e+01 2.474882125854492188e+01 -3.745807266235351562e+01
-5.861341857910156250e+01 5.712268829345703125e+00 -1.109284019470214844e+01 5.712268829345703125e+00 -3.389049530029296875e+01 7.726361751556396484e+00 -1.109284019470214844e+01 7.726361751556396484e+00 -3.532699203491210938e+01
-6.873992156982421875e+01 5.269575119018554688e+00 3.355643749237060547e+00 5.269575119018554688e+00 -6.473655700683593750e+01 1.043338966369628906e+01 3.355643749237060547e+00 1.043338966369628906e+01 -3.737010192871093750e+01
-1.164814949035644531e+01 4.977104365825653076e-01 1.975404739379882812e+01 4.977104365825653076e-01 -4.254375839233398438e+01 5.391863822937011719e+00 1.975404739379882812e+01 5.391863822937011719e+00 -2.566788291931152344e+01
-3.399208450317382812e+01 2.399093627929687500e+00 1.020535230636596680e+00 2.399093627929687500e+00 -2.972412490844726562e+01 -7.794836521148681641e+00 1.020535230636596680e+00 -7.794836521148681641e+00 -2.782781410217285156e+01
-4.001486206054687500e+01 2.213677787780761719e+01 -6.831554889678955078e+00 2.213677787780761719e+01 -1.022108554840087891e+01 -8.253276824951171875e+00 -6.831554889678955078e+00 -8.253276824951171875e+00 -2.506508636474609375e+01
-1.663903427124023438e+01 -2.009696722030639648e+00 -1.793892097473144531e+01 -2.009696722030639648e+00 -1.754874038696289062e+01 -1.573435211181640625e+01 -1.793892097473144531e+01 -1.573435211181640625e+01 -6.290463924407958984e+00
-9.505130767822265625e+00 -9.798417091369628906e+00 9.376557350158691406e+00 -9.798417091369628906e+00 -6.276680755615234375e+01 -1.344483661651611328e+01 9.376557350158691406e+00 -1.344483661651611328e+01 -3.135208129882812500e+01
-2.585955238342285156e+01 2.580704879760742188e+01 -3.312450408935546875e+00 2.580704879760742188e+01 -3.647371292114257812e+01 7.451200485229492188e+00 -3.312450408935546875e+00 7.451200485229492188e+00 -3.101688003540039062e+01
-3.257052993774414062e+01 -1.814580154418945312e+01 2.839084148406982422e+00 -1.814580154418945312e+01 -1.660831451416015625e+01 -1.368461322784423828e+01 2.839084148406982422e+00 -1.368461322784423828e+01 -2.031148910522460938e+01
-2.374187088012695312e+01 1.040176296234130859e+01 -2.048125076293945312e+01 1.040176296234130859e+01 -4.100719928741455078e+00 3.421755313873291016e+00 -2.048125076293945312e+01 3.421755313873291016e+00 -5.413950729370117188e+01
-5.240609359741210938e+01 -8.620281219482421875e-01 -1.058441543579101562e+01 -8.620281219482421875e-01 -9.175994873046875000e+01 2.059194326400756836e+00 -1.058441543579101562e+01 2.059194326400756836e+00 -4.324883651733398438e+01
-1.777536773681640625e+01 -4.170386791229248047e+00 1.707541275024414062e+01 -4.170386791229248047e+00 -4.212791061401367188e+01 -4.584600448608398438e+00 1.707541275024414062e+01 -4.584600448608398438e+00 -2.887780761718750000e+01
-5.350075149536132812e+01 -1.555644321441650391e+01 -3.213100051879882812e+01 -1.555644321441650391e+01 -5.302338790893554688e+01 -8.012308120727539062e+00 -3.213100051879882812e+01 -8.012308120727539062e+00 -4.100554656982421875e+01
-6.666642761230468750e+01 2.059136772155761719e+01 1.046100807189941406e+01 2.059136772155761719e+01 -2.623302268981933594e+01 7.370457649230957031e+00 1.046100807189941406e+01 7.370457649230957031e+00 -8.140428161621093750e+01
-1.405211257934570312e+01 -8.153715133666992188e+00 -1.181640386581420898e+00 -8.153715133666992188e+00 3.710741400718688965e-01 -7.705070495605468750e+00 -1.181640386581420898e+00 -7.705070495605468750e+00 -6.355785751342773438e+01
-7.553488254547119141e+00 1.594185233116149902e+00 5.952062606811523438e+00 1.594185233116149902e+00 -1.084416866302490234e+01 -2.443967056274414062e+01 5.952062606811523438e+00 -2.443967056274414062e+01 -7.022416591644287109e+00
-1.722475814819335938e+01 5.207952022552490234e+00 -8.131407737731933594e+00 5.207952022552490234e+00 -4.254896640777587891e+00 -1.090781116485595703e+01 -8.131407737731933594e+00 -1.090781116485595703e+01 -6.780247497558593750e+01
-3.738349914550781250e+01 -1.049682331085205078e+01 -2.669445991516113281e+00 -1.049682331085205078e+01 -2.870962524414062500e+01 1.110630702972412109e+01 -2.669445991516113281e+00 1.110630702972412109e+01 -7.194994354248046875e+01
-8.613008499145507812e+00 1.110359287261962891e+01 -2.108628273010253906e+00 1.110359287261962891e+01 -4.451634216308593750e+01 -9.775976181030273438e+00 -2.108628273010253906e+00 -9.775976181030273438e+00 -1.163397693634033203e+01