1.867000007629394531e+01 0.000000000000000000e+00 0.000000000000000000e+00 3.280000090599060059e-01 1.896899986267089844e+01 0.000000000000000000e+00 3.810000121593475342e-01 5.999999865889549255e-02 1.857900047302246094e+01
1.915999984741210938e+01 0.000000000000000000e+00 0.000000000000000000e+00 -2.310000061988830566e-01 1.959700012207031250e+01 0.000000000000000000e+00 1.860000044107437134e-01 3.869999945163726807e-01 1.949099922180175781e+01
1.878199958801269531e+01 0.000000000000000000e+00 0.000000000000000000e+00 -2.840000092983245850e-01 1.844899940490722656e+01 0.000000000000000000e+00 -9.899999946355819702e-02 -8.399999886751174927e-02 1.865999984741210938e+01
1.805200004577636719e+01 0.000000000000000000e+00 0.000000000000000000e+00 -1.570000052452087402e-01 1.862400054931640625e+01 0.000000000000000000e+00 7.900000363588333130e-02 9.600000083446502686e-02 1.860499954223632812e+01
1.849900054931640625e+01 0.000000000000000000e+00 0.000000000000000000e+00 -2.230000048875808716e-01 1.892099952697753906e+01 0.000000000000000000e+00 1.790000051259994507e-01 3.729999959468841553e-01 1.881900024414062500e+01
1.912899971008300781e+01 0.000000000000000000e+00 0.000000000000000000e+00 1.469999998807907104e-01 1.832799911499023438e+01 0.000000000000000000e+00 3.459999859333038330e-01 -3.790000081062316895e-01 1.860000038146972656e+01
1.896800041198730469e+01 0.000000000000000000e+00 0.000000000000000000e+00 1.459999978542327881e-01 1.817399978637695312e+01 0.000000000000000000e+00 3.429999947547912598e-01 -3.759999871253967285e-01 1.844300079345703125e+01
1.861499977111816406e+01 0.000000000000000000e+00 0.000000000000000000e+00 -1.620000004768371582e-01 1.920499992370605469e+01 0.000000000000000000e+00 8.100000023841857910e-02 9.899999946355819702e-02 1.918499946594238281e+01
1.868300056457519531e+01 0.000000000000000000e+00 0.000000000000000000e+00 -2.249999940395355225e-01 1.910899925231933594e+01 0.000000000000000000e+00 1.809999942779541016e-01 3.770000040531158447e-01 1.900600051879882812e+01
1.911599922180175781e+01 0.000000000000000000e+00 0.000000000000000000e+00 1.469999998807907104e-01 1.831599998474121094e+01 0.000000000000000000e+00 3.449999988079071045e-01 -3.790000081062316895e-01 1.858799934387207031e+01
1.831599998474121094e+01 0.000000000000000000e+00 0.000000000000000000e+00 4.280000030994415283e-01 1.839800071716308594e+01 0.000000000000000000e+00 -4.699999839067459106e-02 1.099999994039535522e-01 1.848200035095214844e+01
1.874399948120117188e+01 0.000000000000000000e+00 0.000000000000000000e+00 -2.590000033378601074e-01 1.876099967956542969e+01 0.000000000000000000e+00 3.350000083446502686e-01 -3.240000009536743164e-01 1.862100028991699219e+01
1.855599975585937500e+01 0.000000000000000000e+00 0.000000000000000000e+00 -1.609999984502792358e-01 1.914399909973144531e+01 0.000000000000000000e+00 8.100000023841857910e-02 9.899999946355819702e-02 1.912500000000000000e+01
1.878199958801269531e+01 0.000000000000000000e+00 0.000000000000000000e+00 3.429999947547912598e-01 1.878800010681152344e+01 0.000000000000000000e+00 -1.749999970197677612e-01 5.799999833106994629e-02 1.825499916076660156e+01
1.864200019836425781e+01 0.000000000000000000e+00 0.000000000000000000e+00 -2.249999940395355225e-01 1.906699943542480469e+01 0.000000000000000000e+00 1.809999942779541016e-01 3.759999871253967285e-01 1.896299934387207031e+01
1.903499984741210938e+01 0.000000000000000000e+00 0.000000000000000000e+00 3.350000083446502686e-01 1.933900070190429688e+01 0.000000000000000000e+00 3.889999985694885254e-01 6.199999898672103882e-02 1.894199943542480469e+01
1.809900093078613281e+01 0.000000000000000000e+00 0.000000000000000000e+00 -1.570000052452087402e-01 1.867300033569335938e+01 0.000000000000000000e+00 7.900000363588333130e-02 9.700000286102294922e-02 1.865299987792968750e+01
1.907299995422363281e+01 0.000000000000000000e+00 0.000000000000000000e+00 -2.879999876022338867e-01 1.873500061035156250e+01 0.000000000000000000e+00 -1.000000014901161194e-01 -8.500000089406967163e-02 1.894899940490722656e+01
1.863800048828125000e+01 0.000000000000000000e+00 0.000000000000000000e+00 -3.000000026077032089e-03 1.936599922180175781e+01 0.000000000000000000e+00 -4.160000085830688477e-01 -2.840000092983245850e-01 1.861100006103515625e+01
1.878700065612792969e+01 0.000000000000000000e+00 0.000000000000000000e+00 -1.630000025033950806e-01 1.938299942016601562e+01 0.000000000000000000e+00 8.200000226497650146e-02 1.000000014901161194e-01 1.936300086975097656e+01
1.911400032043457031e+01 0.000000000000000000e+00 0.000000000000000000e+00 3.490000069141387939e-01 1.912000083923339844e+01 0.000000000000000000e+00 -1.780000030994415283e-01 5.900000035762786865e-02 1.857699966430664062e+01
1.802599906921386719e+01 0.000000000000000000e+00 0.000000000000000000e+00 -2.169999927282333374e-01 1.843700027465820312e+01 0.000000000000000000e+00 1.749999970197677612e-01 3.639999926090240479e-01 1.833699989318847656e+01
1.845100021362304688e+01 0.000000000000000000e+00 0.000000000000000000e+00 0.000000000000000000e+00 1.845100021362304688e+01 0.000000000000000000e+00 0.000000000000000000e+00 0.000000000000000000e+00 1.845100021362304688e+01
1.890200042724609375e+01 0.000000000000000000e+00 0.000000000000000000e+00 -2.860000133514404297e-01 1.856699943542480469e+01 0.000000000000000000e+00 -9.899999946355819702e-02 -8.399999886751174927e-02 1.878000068664550781e+01
1.913800048828125000e+01 0.000000000000000000e+00 0.000000000000000000e+00 -2.300000041723251343e-01 1.957399940490722656e+01 0.000000000000000000e+00 1.850000023841857910e-01 3.860000073909759521e-01 1.946800041198730469e+01
1.869599914550781250e+01 0.000000000000000000e+00 0.000000000000000000e+00 -2.590000033378601074e-01 1.871299934387207031e+01 0.000000000000000000e+00 3.339999914169311523e-01 -3.240000009536743164e-01 1.857299995422363281e+01
1.873999977111816406e+01 0.000000000000000000e+00 0.000000000000000000e+00 -1.630000025033950806e-01 1.933499908447265625e+01 0.000000000000000000e+00 8.200000226497650146e-02 1.000000014901161194e-01 1.931399917602539062e+01
1.874900054931640625e+01 0.000000000000000000e+00 0.000000000000000000e+00 1.439999938011169434e-01 1.796400070190429688e+01 0.000000000000000000e+00 3.389999866485595703e-01 -3.709999918937683105e-01 1.823100090026855469e+01
1.883600044250488281e+01 0.000000000000000000e+00 0.000000000000000000e+00 -3.000000026077032089e-03 1.957200050354003906e+01 0.000000000000000000e+00 -4.210000038146972656e-01 -2.870000004768371582e-01 1.880900001525878906e+01
1.927799987792968750e+01 0.000000000000000000e+00 0.000000000000000000e+00 -2.669999897480010986e-01 1.929500007629394531e+01 0.000000000000000000e+00 3.449999988079071045e-01 -3.339999914169311523e-01 1.915099906921386719e+01
1.910300064086914062e+01 0.000000000000000000e+00 0.000000000000000000e+00 4.469999969005584717e-01 1.918799972534179688e+01 0.000000000000000000e+00 -4.899999871850013733e-02 1.150000020861625671e-01 1.927599906921386719e+01
1.844099998474121094e+01 0.000000000000000000e+00 0.000000000000000000e+00 3.240000009536743164e-01 1.873600006103515625e+01 0.000000000000000000e+00 3.770000040531158447e-01 5.999999865889549255e-02 1.835099983215332031e+01
1.862800025939941406e+01 0.000000000000000000e+00 0.000000000000000000e+00 3.280000090599060059e-01 1.892600059509277344e+01 0.000000000000000000e+00 3.810000121593475342e-01 5.999999865889549255e-02 1.853800010681152344e+01
1.921299934387207031e+01 0.000000000000000000e+00 0.000000000000000000e+00 3.510000109672546387e-01 1.921899986267089844e+01 0.000000000000000000e+00 -1.790000051259994507e-01 5.900000035762786865e-02 1.867300033569335938e+01
1.841900062561035156e+01 0.000000000000000000e+00 0.000000000000000000e+00 4.309999942779541016e-01 1.850099945068359375e+01 0.000000000000000000e+00 -4.800000041723251343e-02 1.110000014305114746e-01 1.858600044250488281e+01
1.904800033569335938e+01 0.000000000000000000e+00 0.000000000000000000e+00 -1.650000065565109253e-01 1.965200042724609375e+01 0.000000000000000000e+00 8.299999684095382690e-02 1.019999980926513672e-01 1.963199996948242188e+01
1.907299995422363281e+01 0.000000000000000000e+00 0.000000000000000000e+00 4.510000050067901611e-01 1.826399993896484375e+01 0.000000000000000000e+00 8.799999952316284180e-02 1.499999966472387314e-02 1.871400070190429688e+01
1.902199935913085938e+01 0.000000000000000000e+00 0.000000000000000000e+00 -1.650000065565109253e-01 1.962500000000000000e+01 0.000000000000000000e+00 8.299999684095382690e-02 1.019999980926513672e-01 1.960499954223632812e+01
1.826000022888183594e+01 0.000000000000000000e+00 0.000000000000000000e+00 3.210000097751617432e-01 1.855200004577636719e+01 0.000000000000000000e+00 3.729999959468841553e-01 5.900000035762786865e-02 1.817099952697753906e+01
1.834399986267089844e+01 0.000000000000000000e+00 0.000000000000000000e+00 3.230000138282775879e-01 1.863800048828125000e+01 0.000000000000000000e+00 3.750000000000000000e-01 5.900000035762786865e-02 1.825499916076660156e+01
1.815800094604492188e+01 0.000000000000000000e+00 0.000000000000000000e+00 3.190000057220458984e-01 1.844799995422363281e+01 0.000000000000000000e+00 3.709999918937683105e-01 5.900000035762786865e-02 1.806900024414062500e+01
1.861100006103515625e+01 0.000000000000000000e+00 0.000000000000000000e+00 -3.000000026077032089e-03 1.933799934387207031e+01 0.000000000000000000e+00 -4.149999916553497314e-01 -2.840000092983245850e-01 1.858399963378906250e+01
1.851399993896484375e+01 0.000000000000000000e+00 0.000000000000000000e+00 -2.230000048875808716e-01 1.893600082397460938e+01 0.000000000000000000e+00 1.790000051259994507e-01 3.740000128746032715e-01 1.883399963378906250e+01
1.889100074768066406e+01 0.000000000000000000e+00 0.000000000000000000e+00 1.449999958276748657e-01 1.810000038146972656e+01 0.000000000000000000e+00 3.409999907016754150e-01 -3.740000128746032715e-01 1.836899948120117188e+01
1.906800079345703125e+01 0.000000000000000000e+00 0.000000000000000000e+00 -3.000000026077032089e-03 1.981299972534179688e+01 0.000000000000000000e+00 -4.259999990463256836e-01 -2.910000085830688477e-01 1.904000091552734375e+01
1.832500076293945312e+01 0.000000000000000000e+00 0.000000000000000000e+00 -1.589999943971633911e-01 1.890600013732910156e+01 0.000000000000000000e+00 7.999999821186065674e-02 9.799999743700027466e-02 1.888599967956542969e+01
1.841399955749511719e+01 0.000000000000000000e+00 0.000000000000000000e+00 -1.599999964237213135e-01 1.899799919128417969e+01 0.000000000000000000e+00 8.100000023841857910e-02 9.799999743700027466e-02 1.897900009155273438e+01
1.918899917602539062e+01 0.000000000000000000e+00 0.000000000000000000e+00 -2.899999916553497314e-01 1.884900093078613281e+01 0.000000000000000000e+00 -1.010000035166740417e-01 -8.500000089406967163e-02 1.906500053405761719e+01
1.870499992370605469e+01 0.000000000000000000e+00 0.000000000000000000e+00 1.439999938011169434e-01 1.792200088500976562e+01 0.000000000000000000e+00 3.379999995231628418e-01 -3.700000047683715820e-01 1.818799972534179688e+01
1.877400016784667969e+01 0.000000000000000000e+00 0.000000000000000000e+00 -2.599999904632568359e-01 1.879100036621093750e+01 0.000000000000000000e+00 3.359999954700469971e-01 -3.249999880790710449e-01 1.864999961853027344e+01
1.919000053405761719e+01 0.000000000000000000e+00 0.000000000000000000e+00 4.490000009536743164e-01 1.927599906921386719e+01 0.000000000000000000e+00 -5.000000074505805969e-02 1.150000020861625671e-01 1.936400032043457031e+01
1.888699913024902344e+01 0.000000000000000000e+00 0.000000000000000000e+00 -2.269999980926513672e-01 1.931800079345703125e+01 0.000000000000000000e+00 1.829999983310699463e-01 3.810000121593475342e-01 1.921299934387207031e+01
1.913199996948242188e+01 0.000000000000000000e+00 0.000000000000000000e+00 3.490000069141387939e-01 1.913800048828125000e+01 0.000000000000000000e+00 -1.780000030994415283e-01 5.900000035762786865e-02 1.859499931335449219e+01
1.875699996948242188e+01 0.000000000000000000e+00 0.000000000000000000e+00 3.300000131130218506e-01 1.905699920654296875e+01 0.000000000000000000e+00 3.829999864101409912e-01 6.100000068545341492e-02 1.866600036621093750e+01
1.902400016784667969e+01 0.000000000000000000e+00 0.000000000000000000e+00 1.459999978542327881e-01 1.822800064086914062e+01 0.000000000000000000e+00 3.440000116825103760e-01 -3.770000040531158447e-01 1.849799919128417969e+01
1.915200042724609375e+01 0.000000000000000000e+00 0.000000000000000000e+00 3.499999940395355225e-01 1.915900039672851562e+01 0.000000000000000000e+00 -1.780000030994415283e-01 5.900000035762786865e-02 1.861400032043457031e+01
1.883499908447265625e+01 0.000000000000000000e+00 0.000000000000000000e+00 1.449999958276748657e-01 1.804599952697753906e+01 0.000000000000000000e+00 3.400000035762786865e-01 -3.729999959468841553e-01 1.831399917602539062e+01
1.967700004577636719e+01 0.000000000000000000e+00 0.000000000000000000e+00 1.509999930858612061e-01 1.885400009155273438e+01 0.000000000000000000e+00 3.549999892711639404e-01 -3.899999856948852539e-01 1.913299942016601562e+01
1.840500068664550781e+01 0.000000000000000000e+00 0.000000000000000000e+00 -2.549999952316284180e-01 1.842200088500976562e+01 0.000000000000000000e+00 3.289999961853027344e-01 -3.190000057220458984e-01 1.828400039672851562e+01
1.824500083923339844e+01 0.000000000000000000e+00 0.000000000000000000e+00 3.330000042915344238e-01 1.825099945068359375e+01 0.000000000000000000e+00 -1.700000017881393433e-01 5.600000172853469849e-02 1.773200035095214844e+01
1.961000061035156250e+01 0.000000000000000000e+00 0.000000000000000000e+00 1.509999930858612061e-01 1.878899955749511719e+01 0.000000000000000000e+00 3.540000021457672119e-01 -3.880000114440917969e-01 1.906800079345703125e+01
1.839900016784667969e+01 0.000000000000000000e+00 0.000000000000000000e+00 -2.220000028610229492e-01 1.881900024414062500e+01 0.000000000000000000e+00 1.780000030994415283e-01 3.709999918937683105e-01 1.871699905395507812e+01
1.901199913024902344e+01 0.000000000000000000e+00 0.000000000000000000e+00 -2.870000004768371582e-01 1.867499923706054688e+01 0.000000000000000000e+00 -1.000000014901161194e-01 -8.500000089406967163e-02 1.888899993896484375e+01
1.837899971008300781e+01 0.000000000000000000e+00 0.000000000000000000e+00 -2.210000008344650269e-01 1.879800033569335938e+01 0.000000000000000000e+00 1.780000030994415283e-01 3.709999918937683105e-01 1.869599914550781250e+01
1.819700050354003906e+01 0.000000000000000000e+00 0.000000000000000000e+00 4.250000119209289551e-01 1.827899932861328125e+01 0.000000000000000000e+00 -4.699999839067459106e-02 1.089999973773956299e-01 1.836199951171875000e+01
1.803199958801269531e+01 0.000000000000000000e+00 0.000000000000000000e+00 -1.570000052452087402e-01 1.860400009155273438e+01 0.000000000000000000e+00 7.900000363588333130e-02 9.600000083446502686e-02 1.858499908447265625e+01
1.912000083923339844e+01 0.000000000000000000e+00 0.000000000000000000e+00 -2.639999985694885254e-01 1.913699913024902344e+01 0.000000000000000000e+00 3.420000076293945312e-01 -3.310000002384185791e-01 1.899399948120117188e+01
1.870400047302246094e+01 0.000000000000000000e+00 0.000000000000000000e+00 -3.000000026077032089e-03 1.943400001525878906e+01 0.000000000000000000e+00 -4.180000126361846924e-01 -2.849999964237213135e-01 1.867600059509277344e+01
1.923100090026855469e+01 0.000000000000000000e+00 0.000000000000000000e+00 1.480000019073486328e-01 1.842600059509277344e+01 0.000000000000000000e+00 3.470000028610229492e-01 -3.810000121593475342e-01 1.869899940490722656e+01
1.873900032043457031e+01 0.000000000000000000e+00 0.000000000000000000e+00 -2.259999960660934448e-01 1.916699981689453125e+01 0.000000000000000000e+00 1.819999963045120239e-01 3.779999911785125732e-01 1.906299972534179688e+01
1.810199928283691406e+01 0.000000000000000000e+00 0.000000000000000000e+00 -1.570000052452087402e-01 1.867700004577636719e+01 0.000000000000000000e+00 7.900000363588333130e-02 9.700000286102294922e-02 1.865699958801269531e+01
1.826000022888183594e+01 0.000000000000000000e+00 0.000000000000000000e+00 -1.589999943971633911e-01 1.883900070190429688e+01 0.000000000000000000e+00 7.999999821186065674e-02 9.700000286102294922e-02 1.881999969482421875e+01
1.781200027465820312e+01 0.000000000000000000e+00 0.000000000000000000e+00 -1.550000011920928955e-01 1.837700080871582031e+01 0.000000000000000000e+00 7.800000160932540894e-02 9.499999880790710449e-02 1.835799980163574219e+01
1.802000045776367188e+01 0.000000000000000000e+00 0.000000000000000000e+00 -2.169999927282333374e-01 1.843099975585937500e+01 0.000000000000000000e+00 1.749999970197677612e-01 3.639999926090240479e-01 1.833099937438964844e+01
1.879400062561035156e+01 0.000000000000000000e+00 0.000000000000000000e+00 4.390000104904174805e-01 1.887800025939941406e+01 0.000000000000000000e+00 -4.899999871850013733e-02 1.129999980330467224e-01 1.896400070190429688e+01
1.810099983215332031e+01 0.000000000000000000e+00 0.000000000000000000e+00 3.179999887943267822e-01 1.838999938964843750e+01 0.000000000000000000e+00 3.700000047683715820e-01 5.900000035762786865e-02 1.801199913024902344e+01
1.920000076293945312e+01 0.000000000000000000e+00 0.000000000000000000e+00 4.539999961853027344e-01 1.838599967956542969e+01 0.000000000000000000e+00 8.900000154972076416e-02 1.600000075995922089e-02 1.883900070190429688e+01
1.913999938964843750e+01 0.000000000000000000e+00 0.000000000000000000e+00 0.000000000000000000e+00 1.913999938964843750e+01 0.000000000000000000e+00 0.000000000000000000e+00 0.000000000000000000e+00 1.913999938964843750e+01
1.879899978637695312e+01 0.000000000000000000e+00 0.000000000000000000e+00 -2.840000092983245850e-01 1.846599960327148438e+01 0.000000000000000000e+00 -9.899999946355819702e-02 -8.399999886751174927e-02 1.867700004577636719e+01
1.910099983215332031e+01 0.000000000000000000e+00 0.000000000000000000e+00 -2.890000045299530029e-01 1.876300048828125000e+01 0.000000000000000000e+00 -1.000000014901161194e-01 -8.500000089406967163e-02 1.897699928283691406e+01
1.861300086975097656e+01 0.000000000000000000e+00 0.000000000000000000e+00 -2.569999992847442627e-01 1.862999916076660156e+01 0.000000000000000000e+00 3.330000042915344238e-01 -3.219999969005584717e-01 1.849099922180175781e+01
1.831299972534179688e+01 0.000000000000000000e+00 0.000000000000000000e+00 3.219999969005584717e-01 1.860600090026855469e+01 0.000000000000000000e+00 3.740000128746032715e-01 5.900000035762786865e-02 1.822400093078613281e+01
1.918600082397460938e+01 0.000000000000000000e+00 0.000000000000000000e+00 1.469999998807907104e-01 1.838199996948242188e+01 0.000000000000000000e+00 3.470000028610229492e-01 -3.799999952316284180e-01 1.865500068664550781e+01
1.812700080871582031e+01 0.000000000000000000e+00 0.000000000000000000e+00 -3.000000026077032089e-03 1.883499908447265625e+01 0.000000000000000000e+00 -4.050000011920928955e-01 -2.770000100135803223e-01 1.810099983215332031e+01
1.960700035095214844e+01 0.000000000000000000e+00 0.000000000000000000e+00 3.580000102519989014e-01 1.961300086975097656e+01 0.000000000000000000e+00 -1.829999983310699463e-01 5.999999865889549255e-02 1.905599975585937500e+01
1.923999977111816406e+01 0.000000000000000000e+00 0.000000000000000000e+00 4.550000131130218506e-01 1.842399978637695312e+01 0.000000000000000000e+00 8.900000154972076416e-02 1.600000075995922089e-02 1.887800025939941406e+01
1.884000015258789062e+01 0.000000000000000000e+00 0.000000000000000000e+00 4.399999976158142090e-01 1.892499923706054688e+01 0.000000000000000000e+00 -4.899999871850013733e-02 1.129999980330467224e-01 1.901199913024902344e+01
1.845800018310546875e+01 0.000000000000000000e+00 0.000000000000000000e+00 -3.000000026077032089e-03 1.917900085449218750e+01 0.000000000000000000e+00 -4.120000004768371582e-01 -2.820000052452087402e-01 1.843099975585937500e+01
1.875699996948242188e+01 0.000000000000000000e+00 0.000000000000000000e+00 3.300000131130218506e-01 1.905699920654296875e+01 0.000000000000000000e+00 3.829999864101409912e-01 6.100000068545341492e-02 1.866500091552734375e+01
1.903599929809570312e+01 0.000000000000000000e+00 0.000000000000000000e+00 3.479999899864196777e-01 1.904199981689453125e+01 0.000000000000000000e+00 -1.770000010728836060e-01 5.900000035762786865e-02 1.850099945068359375e+01
1.910400009155273438e+01 0.000000000000000000e+00 0.000000000000000000e+00 3.490000069141387939e-01 1.911100006103515625e+01 0.000000000000000000e+00 -1.780000030994415283e-01 5.900000035762786865e-02 1.856800079345703125e+01
1.835499954223632812e+01 0.000000000000000000e+00 0.000000000000000000e+00 -3.000000026077032089e-03 1.907200050354003906e+01 0.000000000000000000e+00 -4.099999964237213135e-01 -2.800000011920928955e-01 1.832799911499023438e+01
1.871400070190429688e+01 0.000000000000000000e+00 0.000000000000000000e+00 1.439999938011169434e-01 1.793099975585937500e+01 0.000000000000000000e+00 3.379999995231628418e-01 -3.709999918937683105e-01 1.819700050354003906e+01
1.915699958801269531e+01 0.000000000000000000e+00 0.000000000000000000e+00 0.000000000000000000e+00 1.915699958801269531e+01 0.000000000000000000e+00 0.000000000000000000e+00 0.000000000000000000e+00 1.915699958801269531e+01
1.944499969482421875e+01 0.000000000000000000e+00 0.000000000000000000e+00 1.490000039339065552e-01 1.863100051879882812e+01 0.000000000000000000e+00 3.510000109672546387e-01 -3.849999904632568359e-01 1.890699958801269531e+01
1.884799957275390625e+01 0.000000000000000000e+00 0.000000000000000000e+00 1.449999958276748657e-01 1.805900001525878906e+01 0.000000000000000000e+00 3.400000035762786865e-01 -3.729999959468841553e-01 1.832600021362304688e+01
1.853499984741210938e+01 0.000000000000000000e+00 0.000000000000000000e+00 -2.560000121593475342e-01 1.855200004577636719e+01 0.000000000000000000e+00 3.319999873638153076e-01 -3.210000097751617432e-01 1.841300010681152344e+01
1.902599906921386719e+01 0.000000000000000000e+00 0.000000000000000000e+00 1.459999978542327881e-01 1.822900009155273438e+01 0.000000000000000000e+00 3.440000116825103760e-01 -3.770000040531158447e-01 1.849900054931640625e+01
1.853700065612792969e+01 0.000000000000000000e+00 0.000000000000000000e+00 -2.800000011920928955e-01 1.820899963378906250e+01 0.000000000000000000e+00 -9.799999743700027466e-02 -8.200000226497650146e-02 1.841699981689453125e+01
1.893000030517578125e+01 0.000000000000000000e+00 0.000000000000000000e+00 -2.619999945163726807e-01 1.894700050354003906e+01 0.000000000000000000e+00 3.389999866485595703e-01 -3.280000090599060059e-01 1.880500030517578125e+01
1.805599975585937500e+01 0.000000000000000000e+00 0.000000000000000000e+00 -3.000000026077032089e-03 1.876099967956542969e+01 0.000000000000000000e+00 -4.029999971389770508e-01 -2.759999930858612061e-01 1.803000068664550781e+01
1.846199989318847656e+01 0.000000000000000000e+00 0.000000000000000000e+00 -2.220000028610229492e-01 1.888299942016601562e+01 0.000000000000000000e+00 1.790000051259994507e-01 3.720000088214874268e-01 1.878000068664550781e+01
1.917900085449218750e+01 0.000000000000000000e+00 0.000000000000000000e+00 3.499999940395355225e-01 1.918499946594238281e+01 0.000000000000000000e+00 -1.790000051259994507e-01 5.900000035762786865e-02 1.863999938964843750e+01
1.956800079345703125e+01 0.000000000000000000e+00 0.000000000000000000e+00 3.569999933242797852e-01 1.957500076293945312e+01 0.000000000000000000e+00 -1.819999963045120239e-01 5.999999865889549255e-02 1.901799964904785156e+01
1.850499916076660156e+01 0.000000000000000000e+00 0.000000000000000000e+00 -1.609999984502792358e-01 1.909199905395507812e+01 0.000000000000000000e+00 8.100000023841857910e-02 9.899999946355819702e-02 1.907200050354003906e+01
1.846699905395507812e+01 0.000000000000000000e+00 0.000000000000000000e+00 3.249999880790710449e-01 1.876300048828125000e+01 0.000000000000000000e+00 3.770000040531158447e-01 5.999999865889549255e-02 1.837700080871582031e+01
1.880699920654296875e+01 0.000000000000000000e+00 0.000000000000000000e+00 3.429999947547912598e-01 1.881299972534179688e+01 0.000000000000000000e+00 -1.749999970197677612e-01 5.799999833106994629e-02 1.827799987792968750e+01
1.879299926757812500e+01 0.000000000000000000e+00 0.000000000000000000e+00 4.390000104904174805e-01 1.887700080871582031e+01 0.000000000000000000e+00 -4.899999871850013733e-02 1.129999980330467224e-01 1.896400070190429688e+01
1.902499961853027344e+01 0.000000000000000000e+00 0.000000000000000000e+00 4.449999928474426270e-01 1.911100006103515625e+01 0.000000000000000000e+00 -4.899999871850013733e-02 1.140000000596046448e-01 1.919799995422363281e+01
1.913100051879882812e+01 0.000000000000000000e+00 0.000000000000000000e+00 -3.000000026077032089e-03 1.987800025939941406e+01 0.000000000000000000e+00 -4.269999861717224121e-01 -2.919999957084655762e-01 1.910400009155273438e+01
1.855999946594238281e+01 0.000000000000000000e+00 0.000000000000000000e+00 4.339999854564666748e-01 1.864299964904785156e+01 0.000000000000000000e+00 -4.800000041723251343e-02 1.110000014305114746e-01 1.872900009155273438e+01
1.933499908447265625e+01 0.000000000000000000e+00 0.000000000000000000e+00 3.529999852180480957e-01 1.934199905395507812e+01 0.000000000000000000e+00 -1.800000071525573730e-01 5.999999865889549255e-02 1.879199981689453125e+01
1.878499984741210938e+01 0.000000000000000000e+00 0.000000000000000000e+00 3.429999947547912598e-01 1.879100036621093750e+01 0.000000000000000000e+00 -1.749999970197677612e-01 5.799999833106994629e-02 1.825699996948242188e+01
1.841799926757812500e+01 0.000000000000000000e+00 0.000000000000000000e+00 4.309999942779541016e-01 1.850099945068359375e+01 0.000000000000000000e+00 -4.800000041723251343e-02 1.110000014305114746e-01 1.858499908447265625e+01
1.875600051879882812e+01 0.000000000000000000e+00 0.000000000000000000e+00 -2.590000033378601074e-01 1.877199935913085938e+01 0.000000000000000000e+00 3.359999954700469971e-01 -3.249999880790710449e-01 1.863199996948242188e+01
1.854599952697753906e+01 0.000000000000000000e+00 0.000000000000000000e+00 3.389999866485595703e-01 1.855200004577636719e+01 0.000000000000000000e+00 -1.729999929666519165e-01 5.700000002980232239e-02 1.802499961853027344e+01
1.824799919128417969e+01 0.000000000000000000e+00 0.000000000000000000e+00 -3.000000026077032089e-03 1.895999908447265625e+01 0.000000000000000000e+00 -4.070000052452087402e-01 -2.779999971389770508e-01 1.822100067138671875e+01
1.865699958801269531e+01 0.000000000000000000e+00 0.000000000000000000e+00 3.409999907016754150e-01 1.866300010681152344e+01 0.000000000000000000e+00 -1.739999949932098389e-01 5.700000002980232239e-02 1.813299942016601562e+01
1.886199951171875000e+01 0.000000000000000000e+00 0.000000000000000000e+00 -2.269999980926513672e-01 1.929199981689453125e+01 0.000000000000000000e+00 1.829999983310699463e-01 3.810000121593475342e-01 1.918700027465820312e+01
1.833799934387207031e+01 0.000000000000000000e+00 0.000000000000000000e+00 4.289999902248382568e-01 1.842099952697753906e+01 0.000000000000000000e+00 -4.699999839067459106e-02 1.099999994039535522e-01 1.850499916076660156e+01
1.837299919128417969e+01 0.000000000000000000e+00 0.000000000000000000e+00 -1.599999964237213135e-01 1.895599937438964844e+01 0.000000000000000000e+00 7.999999821186065674e-02 9.799999743700027466e-02 1.893600082397460938e+01
1.856800079345703125e+01 0.000000000000000000e+00 0.000000000000000000e+00 3.389999866485595703e-01 1.857399940490722656e+01 0.000000000000000000e+00 -1.729999929666519165e-01 5.700000002980232239e-02 1.804599952697753906e+01
1.841699981689453125e+01 0.000000000000000000e+00 0.000000000000000000e+00 -2.549999952316284180e-01 1.843400001525878906e+01 0.000000000000000000e+00 3.289999961853027344e-01 -3.190000057220458984e-01 1.829599952697753906e+01
1.946599960327148438e+01 0.000000000000000000e+00 0.000000000000000000e+00 1.490000039339065552e-01 1.865099906921386719e+01 0.000000000000000000e+00 3.519999980926513672e-01 -3.849999904632568359e-01 1.892700004577636719e+01
1.870700073242187500e+01 0.000000000000000000e+00 0.000000000000000000e+00 3.289999961853027344e-01 1.900600051879882812e+01 0.000000000000000000e+00 3.819999992847442627e-01 6.100000068545341492e-02 1.861599922180175781e+01
1.868000030517578125e+01 0.000000000000000000e+00 0.000000000000000000e+00 0.000000000000000000e+00 1.868000030517578125e+01 0.000000000000000000e+00 0.000000000000000000e+00 0.000000000000000000e+00 1.868000030517578125e+01
1.866600036621093750e+01 0.000000000000000000e+00 0.000000000000000000e+00 -2.579999864101409912e-01 1.868300056457519531e+01 0.000000000000000000e+00 3.339999914169311523e-01 -3.230000138282775879e-01 1.854299926757812500e+01
1.883900070190429688e+01 0.000000000000000000e+00 0.000000000000000000e+00 -2.610000073909759521e-01 1.885499954223632812e+01 0.000000000000000000e+00 3.370000123977661133e-01 -3.260000050067901611e-01 1.871400070190429688e+01
1.872999954223632812e+01 0.000000000000000000e+00 0.000000000000000000e+00 3.420000076293945312e-01 1.873699951171875000e+01 0.000000000000000000e+00 -1.739999949932098389e-01 5.799999833106994629e-02 1.820400047302246094e+01
1.830299949645996094e+01 0.000000000000000000e+00 0.000000000000000000e+00 -2.199999988079071045e-01 1.872100067138671875e+01 0.000000000000000000e+00 1.770000010728836060e-01 3.689999878406524658e-01 1.861899948120117188e+01
1.871100044250488281e+01 0.000000000000000000e+00 0.000000000000000000e+00 3.289999961853027344e-01 1.901000022888183594e+01 0.000000000000000000e+00 3.819999992847442627e-01 6.100000068545341492e-02 1.861899948120117188e+01
1.875900077819824219e+01 0.000000000000000000e+00 0.000000000000000000e+00 3.300000131130218506e-01 1.905999946594238281e+01 0.000000000000000000e+00 3.829999864101409912e-01 6.100000068545341492e-02 1.866799926757812500e+01