-6.239191406250000000e+04
-6.236980468750000000e+04
-6.240205468750000000e+04
-6.240252343750000000e+04
-6.237762109375000000e+04
-6.239108593750000000e+04
-6.240335937500000000e+04
-6.239029687500000000e+04
-6.237296484375000000e+04
-6.239332421875000000e+04
-6.240205859375000000e+04
-6.239990625000000000e+04
-6.239146484375000000e+04
-6.240421093750000000e+04
-6.237076953125000000e+04
-6.237498046875000000e+04
-6.239460156250000000e+04
-6.239115234375000000e+04
-6.237276171875000000e+04
-6.236887109375000000e+04
-6.237477734375000000e+04
-6.240807812500000000e+04
-6.239246875000000000e+04
-6.237962109375000000e+04
-6.236861328125000000e+04
-6.238699218750000000e+04
-6.237279687500000000e+04
-6.240621484375000000e+04
-6.238505468750000000e+04
-6.236946875000000000e+04
-6.237208203125000000e+04
-6.239146875000000000e+04
-6.240464453125000000e+04
-6.237402734375000000e+04
-6.240661328125000000e+04
-6.236919921875000000e+04
-6.239439062500000000e+04
-6.236603906250000000e+04
-6.240879687500000000e+04
-6.240415234375000000e+04
-6.240681250000000000e+04
-6.237343750000000000e+04
-6.240428125000000000e+04
-6.238887890625000000e+04
-6.236904687500000000e+04
-6.240241406250000000e+04
-6.238758593750000000e+04
-6.237457421875000000e+04
-6.240436328125000000e+04
-6.239504687500000000e+04
-6.236767968750000000e+04
-6.238352734375000000e+04
-6.237242187500000000e+04
-6.240446484375000000e+04
-6.240642187500000000e+04
-6.237251562500000000e+04
-6.240892578125000000e+04
-6.237211718750000000e+04
-6.240543750000000000e+04
-6.241466796875000000e+04
-6.238333593750000000e+04
-6.240491406250000000e+04
-6.237944921875000000e+04
-6.239381250000000000e+04
-6.241278125000000000e+04
-6.239220703125000000e+04
-6.237356640625000000e+04
-6.238456640625000000e+04
-6.237621093750000000e+04
-6.238939843750000000e+04
-6.240276953125000000e+04
-6.238858984375000000e+04
-6.241595703125000000e+04
-6.240973046875000000e+04
-6.238914062500000000e+04
-6.241150000000000000e+04
-6.236955468750000000e+04
-6.237280468750000000e+04
-6.240539843750000000e+04
-6.237271093750000000e+04
-6.239414453125000000e+04
-6.240708593750000000e+04
-6.239029687500000000e+04
-6.240354296875000000e+04
-6.236422656250000000e+04
-6.238860546875000000e+04
-6.237334765625000000e+04
-6.240296484375000000e+04
-6.238077734375000000e+04
-6.237501953125000000e+04
-6.238612890625000000e+04
-6.239128125000000000e+04
-6.241166015625000000e+04
-6.236731640625000000e+04
-6.237111328125000000e+04
-6.240883203125000000e+04
-6.240334765625000000e+04
-6.238872656250000000e+04
-6.240894531250000000e+04
-6.237864062500000000e+04
-6.240626562500000000e+04
-6.239142187500000000e+04
-6.238308984375000000e+04
-6.236418750000000000e+04
-6.237316796875000000e+04
-6.239189062500000000e+04
-6.240315234375000000e+04
-6.237157031250000000e+04
-6.237500000000000000e+04
-6.237100390625000000e+04
-6.240419140625000000e+04
-6.237481640625000000e+04
-6.240460937500000000e+04
-6.240478515625000000e+04
-6.237192968750000000e+04
-6.240668359375000000e+04
-6.240428906250000000e+04
-6.239279296875000000e+04
-6.236642968750000000e+04
-6.240432812500000000e+04
-6.239111328125000000e+04
-6.239842968750000000e+04
-6.240358593750000000e+04
-6.238407421875000000e+04
-6.238794531250000000e+04
-6.239202343750000000e+04
-6.239353906250000000e+04
-6.238677343750000000e+04
-6.240071484375000000e+04
-6.240373046875000000e+04
-6.238412109375000000e+04
-6.237592968750000000e+04
-6.240509375000000000e+04
-6.238686328125000000e+04
-6.238841796875000000e+04
-6.240492968750000000e+04
-6.238563281250000000e+04
-6.240435546875000000e+04
-6.238869531250000000e+04
-6.240275390625000000e+04
-6.240506640625000000e+04
-6.240912890625000000e+04
-6.236452343750000000e+04
-6.239041015625000000e+04
-6.239456640625000000e+04
-6.237106640625000000e+04
-6.239250390625000000e+04
-6.239012109375000000e+04
-6.237346875000000000e+04
-6.240494921875000000e+04
-6.238245312500000000e+04
-6.237486328125000000e+04
-6.240397265625000000e+04
-6.238896875000000000e+04
-6.240040625000000000e+04
-6.236690234375000000e+04
-6.239218359375000000e+04
-6.239023828125000000e+04
-6.239261328125000000e+04
-6.237231640625000000e+04
-6.237002734375000000e+04
-6.238780078125000000e+04
-6.240550000000000000e+04
-6.239480468750000000e+04
-6.238842187500000000e+04
-6.238607812500000000e+04
-6.239041015625000000e+04
-6.240624609375000000e+04
-6.237292968750000000e+04
-6.238797656250000000e+04
-6.240620312500000000e+04
-6.240410937500000000e+04
-6.240671484375000000e+04
-6.237236328125000000e+04
-6.238101171875000000e+04
-6.238939843750000000e+04
-6.239037500000000000e+04
-6.240986718750000000e+04
-6.239997656250000000e+04
-6.236983203125000000e+04
-6.237180859375000000e+04
-6.237812890625000000e+04
-6.240409765625000000e+04
-6.240361718750000000e+04
-6.236905859375000000e+04
-6.236789843750000000e+04
-6.237540625000000000e+04
-6.240131640625000000e+04
-6.239367187500000000e+04
-6.240944531250000000e+04
-6.241767187500000000e+04
-6.237223046875000000e+04
-6.236459375000000000e+04
-6.237121093750000000e+04
-6.238855078125000000e+04
-6.237476562500000000e+04
-6.239068750000000000e+04
-6.241103125000000000e+04
-6.237034375000000000e+04
-6.240916796875000000e+04
-6.240001171875000000e+04
-6.238925390625000000e+04
-6.240562109375000000e+04
-6.239064062500000000e+04
-6.236972265625000000e+04
-6.237129296875000000e+04
-6.240842187500000000e+04
-6.237410546875000000e+04
-6.239300781250000000e+04
-6.240585156250000000e+04
-6.237022656250000000e+04
-6.236617187500000000e+04
-6.240914062500000000e+04
-6.237458984375000000e+04
-6.238601171875000000e+04
-6.239306640625000000e+04
-6.241057812500000000e+04
-6.237190625000000000e+04
-6.240104296875000000e+04
-6.239182421875000000e+04
-6.239017187500000000e+04
-6.237404296875000000e+04
-6.240317968750000000e+04
-6.240546875000000000e+04
-6.237066796875000000e+04
-6.240150000000000000e+04
-6.237204296875000000e+04
-6.238841406250000000e+04
-6.239306250000000000e+04
-6.236788671875000000e+04
-6.238623046875000000e+04
-6.236888281250000000e+04
-6.240637890625000000e+04
-6.237233593750000000e+04
-6.237549218750000000e+04
-6.239112109375000000e+04
-6.237689453125000000e+04
-6.239045312500000000e+04
-6.239069531250000000e+04
-6.237201171875000000e+04
-6.237378906250000000e+04
-6.239678125000000000e+04
-6.239179296875000000e+04
-6.240022656250000000e+04
-6.238325390625000000e+04
-6.237399609375000000e+04
-6.237037890625000000e+04
-6.240535937500000000e+04
-6.238817578125000000e+04
-6.239172656250000000e+04
-6.240307031250000000e+04
-6.237062109375000000e+04
-6.237448437500000000e+04
-6.241187500000000000e+04
-6.240131250000000000e+04
-6.239453515625000000e+04
-6.237836718750000000e+04
-6.237841015625000000e+04
-6.237308203125000000e+04
-6.237064843750000000e+04
-6.236720312500000000e+04
-6.238769140625000000e+04
-6.238648828125000000e+04
-6.240587890625000000e+04
-6.239068359375000000e+04
-6.240196484375000000e+04
-6.238764843750000000e+04
-6.239467187500000000e+04
-6.239487500000000000e+04
-6.238737109375000000e+04
-6.237413281250000000e+04
-6.236533984375000000e+04
-6.238478906250000000e+04
-6.238125390625000000e+04
-6.239614453125000000e+04
-6.236123437500000000e+04
-6.236962890625000000e+04
-6.237533984375000000e+04
-6.236885156250000000e+04
-6.237081640625000000e+04
-6.240686328125000000e+04
-6.237277734375000000e+04
-6.237411328125000000e+04
-6.240711718750000000e+04
-6.240674609375000000e+04
-6.239489843750000000e+04
-6.240503125000000000e+04
-6.237273437500000000e+04
-6.237272265625000000e+04
-6.237597656250000000e+04
-6.240859375000000000e+04
-6.240296875000000000e+04
-6.238711328125000000e+04
-6.236985156250000000e+04
-6.239304687500000000e+04
-6.237333984375000000e+04
-6.239453906250000000e+04
-6.241854687500000000e+04
-6.237091796875000000e+04
-6.238963671875000000e+04
-6.240601562500000000e+04
-6.240691406250000000e+04
-6.236543750000000000e+04
-6.240254687500000000e+04
-6.237264843750000000e+04
-6.237748046875000000e+04
-6.238507421875000000e+04
-6.237572656250000000e+04
-6.240026953125000000e+04
-6.239130859375000000e+04
-6.240357812500000000e+04
-6.241553906250000000e+04
-6.240495312500000000e+04
-6.240734375000000000e+04
-6.240895703125000000e+04
-6.237753515625000000e+04
-6.237272656250000000e+04
-6.237581640625000000e+04
-6.239514453125000000e+04
-6.237408984375000000e+04
-6.240351171875000000e+04
-6.237409375000000000e+04
-6.237123437500000000e+04
-6.236465625000000000e+04
-6.241189843750000000e+04
-6.240370703125000000e+04
-6.236975000000000000e+04
-6.240901562500000000e+04
-6.239132421875000000e+04
-6.240524609375000000e+04
-6.240698437500000000e+04
-6.237596875000000000e+04
-6.237604687500000000e+04
-6.237786718750000000e+04
-6.236895703125000000e+04
-6.237334375000000000e+04
-6.240559765625000000e+04
-6.237435937500000000e+04
-6.237656250000000000e+04
-6.237198437500000000e+04
-6.236857812500000000e+04
-6.240029687500000000e+04
-6.239428125000000000e+04
-6.240662109375000000e+04
-6.238060156250000000e+04
-6.236921093750000000e+04
-6.237553906250000000e+04
-6.236844140625000000e+04
-6.237623828125000000e+04
-6.239077734375000000e+04
-6.240537500000000000e+04
-6.236898828125000000e+04
-6.238710546875000000e+04
-6.240346484375000000e+04
-6.240584375000000000e+04
-6.237125781250000000e+04
-6.235867578125000000e+04
-6.237552343750000000e+04
-6.240378125000000000e+04
-6.240604296875000000e+04
-6.238744921875000000e+04
-6.240453125000000000e+04
-6.240676171875000000e+04
-6.240692578125000000e+04
-6.240599609375000000e+04
-6.237422656250000000e+04
-6.237524218750000000e+04
-6.237330859375000000e+04
-6.238813281250000000e+04
-6.237386328125000000e+04
-6.238643750000000000e+04
-6.237124609375000000e+04
-6.240511328125000000e+04
-6.240378125000000000e+04
-6.236875390625000000e+04
-6.237004687500000000e+04
-6.240687109375000000e+04
-6.236810156250000000e+04
-6.240689843750000000e+04
-6.238830859375000000e+04
-6.236472656250000000e+04
-6.240589453125000000e+04
-6.239030859375000000e+04
-6.236422656250000000e+04
-6.238375781250000000e+04
-6.240014062500000000e+04
-6.238958203125000000e+04
-6.240616406250000000e+04
-6.236639843750000000e+04
-6.237312500000000000e+04
-6.239100000000000000e+04
-6.238824218750000000e+04
-6.240127343750000000e+04
-6.237578125000000000e+04
-6.237438671875000000e+04
-6.239073437500000000e+04
-6.237103515625000000e+04
-6.237393750000000000e+04
-6.236953125000000000e+04
-6.237146484375000000e+04
-6.236950000000000000e+04
-6.239341406250000000e+04
-6.238833203125000000e+04
-6.237194921875000000e+04
-6.237267578125000000e+04
-6.239226953125000000e+04
-6.240673828125000000e+04
-6.236878906250000000e+04
-6.238598046875000000e+04
-6.237121875000000000e+04
-6.240335937500000000e+04
-6.239708203125000000e+04
-6.240623828125000000e+04
-6.241129296875000000e+04
-6.239111328125000000e+04
-6.239017578125000000e+04
-6.240354296875000000e+04
-6.236316015625000000e+04
-6.239103125000000000e+04
-6.236999218750000000e+04
-6.239043359375000000e+04
-6.237454687500000000e+04
-6.238836328125000000e+04
-6.240751171875000000e+04
-6.240554687500000000e+04
-6.240042968750000000e+04
-6.238885546875000000e+04
-6.238217578125000000e+04
-6.241148828125000000e+04
-6.240467578125000000e+04
-6.239035546875000000e+04
-6.236987890625000000e+04
-6.240726171875000000e+04
-6.240732031250000000e+04
-6.237796875000000000e+04
-6.240642968750000000e+04
-6.240489453125000000e+04
-6.240868359375000000e+04
-6.238979296875000000e+04
-6.240400781250000000e+04
-6.238971093750000000e+04
-6.237142187500000000e+04
-6.238726171875000000e+04
-6.240646875000000000e+04
-6.237141015625000000e+04
-6.236951171875000000e+04
-6.237327343750000000e+04
-6.238589062500000000e+04
-6.240750390625000000e+04
-6.238912109375000000e+04
-6.237674609375000000e+04
-6.236892968750000000e+04
-6.238505859375000000e+04
-6.240653125000000000e+04
-6.237519921875000000e+04
-6.237004296875000000e+04
-6.238486328125000000e+04
-6.238906250000000000e+04
-6.237130859375000000e+04
-6.237534375000000000e+04
-6.237188281250000000e+04
-6.236770703125000000e+04
-6.237074609375000000e+04
-6.240499609375000000e+04
-6.239014062500000000e+04
-6.239117968750000000e+04
-6.239960156250000000e+04
-6.239319140625000000e+04
-6.240516015625000000e+04
-6.238667968750000000e+04
-6.240758203125000000e+04
-6.236772265625000000e+04
-6.239701171875000000e+04
-6.238748828125000000e+04
-6.237950781250000000e+04
-6.237105859375000000e+04
-6.240469140625000000e+04
-6.240257812500000000e+04
-6.236711328125000000e+04
-6.239551953125000000e+04
-6.238916015625000000e+04
-6.239032812500000000e+04
-6.238914453125000000e+04
-6.240601171875000000e+04
-6.239365234375000000e+04
-6.239607421875000000e+04
-6.237138671875000000e+04
-6.238855859375000000e+04
-6.240730078125000000e+04
-6.238846484375000000e+04
-6.238282031250000000e+04
-6.240177734375000000e+04
-6.236941406250000000e+04
-6.240820703125000000e+04
-6.240433984375000000e+04
-6.237191796875000000e+04
-6.236974218750000000e+04
-6.240692578125000000e+04
-6.240999218750000000e+04
-6.240679296875000000e+04
-6.238836328125000000e+04
-6.241226562500000000e+04
-6.240514843750000000e+04
-6.237790625000000000e+04
-6.237392968750000000e+04
-6.237648046875000000e+04
-6.240481250000000000e+04
-6.236254687500000000e+04
-6.239385156250000000e+04
-6.239752734375000000e+04
-6.239397265625000000e+04
-6.237125781250000000e+04
-6.240603906250000000e+04
-6.239407812500000000e+04
-6.240970312500000000e+04
-6.240574609375000000e+04
-6.238559375000000000e+04
-6.239149609375000000e+04
-6.238457031250000000e+04
-6.237163671875000000e+04
-6.240400390625000000e+04
-6.239069921875000000e+04
-6.236930468750000000e+04
-6.239046093750000000e+04
-6.237345312500000000e+04
-6.240585937500000000e+04
-6.237523437500000000e+04
-6.239225000000000000e+04
-6.240265234375000000e+04
-6.237951171875000000e+04
-6.237540234375000000e+04
-6.237028906250000000e+04
-6.238918750000000000e+04
-6.237215234375000000e+04
-6.240395312500000000e+04
-6.237270312500000000e+04
-6.240397265625000000e+04
-6.237883593750000000e+04
-6.239054687500000000e+04
-6.240241406250000000e+04
-6.239070703125000000e+04
-6.237651953125000000e+04
-6.237996875000000000e+04
-6.237247265625000000e+04
-6.240829687500000000e+04
-6.236927343750000000e+04
-6.240180078125000000e+04
-6.240736718750000000e+04
-6.237614843750000000e+04
-6.239154296875000000e+04
-6.238996093750000000e+04
-6.240249218750000000e+04
-6.240606640625000000e+04
-6.237580468750000000e+04
-6.236837109375000000e+04
-6.240666406250000000e+04
-6.239126171875000000e+04
-6.240792187500000000e+04
-6.240544140625000000e+04
-6.240832031250000000e+04
-6.240611718750000000e+04
-6.240505468750000000e+04
-6.239204296875000000e+04
-6.237200000000000000e+04
-6.237519140625000000e+04
-6.237611718750000000e+04
-6.240389453125000000e+04
-6.241197656250000000e+04
-6.240585937500000000e+04
-6.236731250000000000e+04
-6.240487890625000000e+04
-6.239159765625000000e+04
-6.238232421875000000e+04
-6.240779296875000000e+04
-6.239396484375000000e+04
-6.240410937500000000e+04
-6.240247265625000000e+04
-6.238780078125000000e+04
-6.238522656250000000e+04
-6.240903906250000000e+04
-6.239005078125000000e+04
-6.239375000000000000e+04
-6.242123437500000000e+04
-6.237660546875000000e+04
-6.236933984375000000e+04
-6.240850000000000000e+04
-6.237032031250000000e+04
-6.239238281250000000e+04
-6.237416406250000000e+04
-6.237427734375000000e+04
-6.237164062500000000e+04
-6.237177734375000000e+04
-6.236908984375000000e+04
-6.238864843750000000e+04
-6.237528906250000000e+04
-6.238096093750000000e+04
-6.239313281250000000e+04
-6.237107812500000000e+04
-6.239037500000000000e+04
-6.240685546875000000e+04
-6.241906250000000000e+04
-6.237407031250000000e+04
-6.236702343750000000e+04
-6.236830859375000000e+04
-6.239680468750000000e+04
-6.241502734375000000e+04
-6.237557812500000000e+04
-6.237418359375000000e+04
-6.240748437500000000e+04
-6.237078515625000000e+04
-6.237528906250000000e+04
-6.240841015625000000e+04
-6.239587109375000000e+04
-6.237402734375000000e+04
-6.238994140625000000e+04
-6.238983984375000000e+04
-6.238682031250000000e+04
-6.236757031250000000e+04
-6.239357812500000000e+04
-6.240678906250000000e+04
-6.237330468750000000e+04
-6.238586718750000000e+04
-6.237073828125000000e+04
-6.239248437500000000e+04
-6.239994921875000000e+04
-6.239466015625000000e+04
-6.236691406250000000e+04
-6.238385156250000000e+04
-6.240449218750000000e+04
-6.239182812500000000e+04
-6.240756250000000000e+04
-6.236878125000000000e+04
-6.238458203125000000e+04
-6.241205078125000000e+04
-6.240250000000000000e+04
-6.239157421875000000e+04
-6.239206640625000000e+04
-6.237391406250000000e+04
-6.239065625000000000e+04
-6.238136328125000000e+04
-6.239244531250000000e+04
-6.240700781250000000e+04
-6.239466015625000000e+04
-6.236817968750000000e+04
-6.239319140625000000e+04
-6.237242578125000000e+04
-6.240066406250000000e+04
-6.239006250000000000e+04
-6.236938671875000000e+04
-6.237032812500000000e+04
-6.238871875000000000e+04
-6.239073437500000000e+04
-6.237057031250000000e+04
-6.237448046875000000e+04
-6.240152734375000000e+04
-6.236772265625000000e+04
-6.238960156250000000e+04
-6.238924218750000000e+04
-6.240672265625000000e+04
-6.239317187500000000e+04
-6.240793359375000000e+04
-6.236820312500000000e+04
-6.237362890625000000e+04
-6.240835156250000000e+04
-6.240517578125000000e+04
-6.236960937500000000e+04
-6.237279296875000000e+04
-6.237715625000000000e+04
-6.237478515625000000e+04
-6.240696093750000000e+04
-6.240167578125000000e+04
-6.240785937500000000e+04
-6.239118359375000000e+04
-6.240527343750000000e+04
-6.238496093750000000e+04
-6.237001171875000000e+04
-6.238895703125000000e+04
-6.241043359375000000e+04
-6.238822656250000000e+04
-6.237609375000000000e+04
-6.238873828125000000e+04
-6.240546875000000000e+04
-6.240649218750000000e+04
-6.240375000000000000e+04
-6.237330468750000000e+04
-6.238976171875000000e+04
-6.237298828125000000e+04
-6.236880078125000000e+04
-6.238864843750000000e+04
-6.236371875000000000e+04
-6.238650000000000000e+04
-6.240391015625000000e+04
-6.241681640625000000e+04
-6.238060156250000000e+04
-6.240748046875000000e+04
-6.239879687500000000e+04
-6.240505468750000000e+04
-6.238958984375000000e+04
-6.240475781250000000e+04
-6.238643750000000000e+04
-6.240544140625000000e+04
-6.240582031250000000e+04
-6.239090234375000000e+04
-6.240442578125000000e+04
-6.238637109375000000e+04
-6.237031640625000000e+04
-6.238315625000000000e+04
-6.236982421875000000e+04
-6.239153125000000000e+04
-6.236842968750000000e+04
-6.239424609375000000e+04
-6.238576953125000000e+04
-6.237209765625000000e+04
-6.240732031250000000e+04
-6.238864062500000000e+04
-6.237271484375000000e+04
-6.239344531250000000e+04
-6.236594140625000000e+04
-6.237304296875000000e+04
-6.240532031250000000e+04
-6.237029296875000000e+04
-6.240967187500000000e+04
-6.240601562500000000e+04
-6.240008984375000000e+04
-6.236831250000000000e+04
-6.238817968750000000e+04
-6.237005078125000000e+04
-6.240653515625000000e+04
-6.239200781250000000e+04
-6.240526953125000000e+04
-6.237742187500000000e+04
-6.240643359375000000e+04
-6.238972265625000000e+04
-6.238935937500000000e+04
-6.240844531250000000e+04
-6.240304296875000000e+04
-6.240064062500000000e+04
-6.238936328125000000e+04
-6.237165625000000000e+04
-6.237837500000000000e+04
-6.236978515625000000e+04
-6.236829687500000000e+04
-6.240740234375000000e+04
-6.237475390625000000e+04
-6.239037890625000000e+04
-6.237561718750000000e+04
-6.240457812500000000e+04
-6.240562890625000000e+04
-6.238125390625000000e+04
-6.237322265625000000e+04
-6.241645312500000000e+04
-6.240342578125000000e+04
-6.239526171875000000e+04
-6.241061718750000000e+04
-6.241669140625000000e+04
-6.236744531250000000e+04
-6.238769140625000000e+04
-6.239304296875000000e+04
-6.240793750000000000e+04
-6.240597656250000000e+04
-6.240516015625000000e+04
-6.240612890625000000e+04
-6.236866015625000000e+04
-6.240682031250000000e+04
-6.240419921875000000e+04
-6.236811328125000000e+04
-6.238216796875000000e+04
-6.240693359375000000e+04
-6.239199218750000000e+04
-6.240868750000000000e+04
-6.237576562500000000e+04
-6.238861718750000000e+04
-6.238642578125000000e+04
-6.239917578125000000e+04
-6.236841406250000000e+04
-6.240691796875000000e+04
-6.237316015625000000e+04
-6.240750781250000000e+04
-6.240875781250000000e+04
-6.240558984375000000e+04
-6.237395703125000000e+04
-6.240501953125000000e+04
-6.238773046875000000e+04
-6.240719531250000000e+04
-6.237393750000000000e+04
-6.239210546875000000e+04
-6.238721093750000000e+04
-6.237201953125000000e+04
-6.241283593750000000e+04
-6.240136328125000000e+04
-6.240087890625000000e+04
-6.240596093750000000e+04
-6.237622656250000000e+04
-6.239151171875000000e+04
-6.237001953125000000e+04
-6.238912109375000000e+04
-6.237762109375000000e+04
-6.241073437500000000e+04
-6.238739843750000000e+04
-6.237387109375000000e+04
-6.240570312500000000e+04
-6.237000000000000000e+04
-6.240359375000000000e+04
-6.240376171875000000e+04
-6.240898437500000000e+04
-6.238894140625000000e+04
-6.240275390625000000e+04
-6.239366015625000000e+04
-6.236814062500000000e+04
-6.237299218750000000e+04
-6.239016015625000000e+04
-6.237046875000000000e+04
-6.240533984375000000e+04
-6.239113281250000000e+04
-6.236973828125000000e+04
-6.236940234375000000e+04
-6.239126171875000000e+04
-6.240384765625000000e+04
-6.236741406250000000e+04
-6.238599218750000000e+04
-6.237172656250000000e+04
-6.236475781250000000e+04
-6.240563671875000000e+04
-6.237766015625000000e+04
-6.239195703125000000e+04
-6.236548046875000000e+04
-6.237989843750000000e+04
-6.237040234375000000e+04
-6.239373437500000000e+04
-6.237212109375000000e+04
-6.236627734375000000e+04
-6.236899218750000000e+04
-6.239300781250000000e+04
-6.237385156250000000e+04
-6.237195312500000000e+04
-6.240911328125000000e+04
-6.238874609375000000e+04
-6.236571875000000000e+04
-6.238996875000000000e+04
-6.238833593750000000e+04
-6.237571093750000000e+04
-6.237216015625000000e+04
-6.237683984375000000e+04
-6.240132421875000000e+04
-6.237671484375000000e+04
-6.236932031250000000e+04
-6.237053125000000000e+04
-6.239028125000000000e+04
-6.240597265625000000e+04
-6.240808984375000000e+04
-6.240563671875000000e+04
-6.240166406250000000e+04
-6.239244921875000000e+04
-6.237638671875000000e+04
-6.240350781250000000e+04
-6.237283593750000000e+04
-6.238284765625000000e+04
-6.237654687500000000e+04
-6.237100781250000000e+04
-6.240647656250000000e+04
-6.238387890625000000e+04
-6.238839453125000000e+04
-6.241101562500000000e+04
-6.241423437500000000e+04
-6.240555859375000000e+04
-6.239547265625000000e+04
-6.238315234375000000e+04
-6.237108203125000000e+04
-6.238926171875000000e+04
-6.238954296875000000e+04
-6.237005859375000000e+04
-6.237651171875000000e+04
-6.237241406250000000e+04
-6.241126562500000000e+04
-6.237028515625000000e+04
-6.237090234375000000e+04
-6.237196093750000000e+04
-6.237203125000000000e+04
-6.238770703125000000e+04
-6.241216406250000000e+04
-6.240857031250000000e+04
-6.237283593750000000e+04
-6.240316796875000000e+04
-6.239415234375000000e+04
-6.237557812500000000e+04
-6.237331640625000000e+04
-6.238744531250000000e+04
-6.236641406250000000e+04
-6.237033593750000000e+04
-6.240928906250000000e+04
-6.240358593750000000e+04
-6.238631250000000000e+04
-6.240669531250000000e+04
-6.239046875000000000e+04
-6.240637500000000000e+04
-6.239332031250000000e+04
-6.237738281250000000e+04
-6.238530078125000000e+04
-6.240780078125000000e+04
-6.239500781250000000e+04
-6.240103906250000000e+04
-6.240475000000000000e+04
-6.237254687500000000e+04
-6.238432812500000000e+04
-6.240709375000000000e+04
-6.237149609375000000e+04
-6.238582812500000000e+04
-6.239268359375000000e+04
-6.240739453125000000e+04
-6.240433984375000000e+04
-6.240453906250000000e+04
-6.237473437500000000e+04
-6.239941015625000000e+04
-6.238305468750000000e+04
-6.239111328125000000e+04
-6.239053125000000000e+04
-6.238384375000000000e+04
-6.238763281250000000e+04
-6.240318359375000000e+04
-6.236620703125000000e+04
-6.239073046875000000e+04
-6.236882812500000000e+04
-6.237689843750000000e+04
-6.236922656250000000e+04
-6.238369140625000000e+04
-6.239255859375000000e+04
-6.237237890625000000e+04
-6.238440625000000000e+04
-6.236964062500000000e+04
-6.239195703125000000e+04
-6.240542578125000000e+04
-6.239244140625000000e+04
-6.237147656250000000e+04
-6.236346875000000000e+04
-6.237350000000000000e+04
-6.237931640625000000e+04
-6.237570312500000000e+04
-6.237019531250000000e+04
-6.238814453125000000e+04
-6.238843750000000000e+04
-6.240095312500000000e+04
-6.236671875000000000e+04
-6.237053906250000000e+04
-6.239040625000000000e+04
-6.240675781250000000e+04
-6.237362109375000000e+04
-6.237322656250000000e+04
-6.240389062500000000e+04
-6.238722656250000000e+04
-6.238304296875000000e+04
-6.240184765625000000e+04
-6.239000390625000000e+04
-6.240361328125000000e+04
-6.237029687500000000e+04
-6.238912890625000000e+04
-6.237331250000000000e+04
-6.240841406250000000e+04
-6.240104687500000000e+04
-6.238655468750000000e+04
-6.238350781250000000e+04
-6.237197265625000000e+04
-6.236727734375000000e+04
-6.238260156250000000e+04
-6.239964843750000000e+04
-6.240738671875000000e+04
-6.238492968750000000e+04
-6.237642187500000000e+04
-6.237486328125000000e+04
-6.238687109375000000e+04
-6.236705078125000000e+04
-6.236445312500000000e+04
-6.238647656250000000e+04
-6.239166406250000000e+04
-6.240747265625000000e+04
-6.237189843750000000e+04
-6.237318359375000000e+04
-6.240122656250000000e+04
-6.239220312500000000e+04
-6.239011328125000000e+04
-6.237630078125000000e+04
-6.236991796875000000e+04
-6.238540234375000000e+04
-6.241144140625000000e+04
-6.238977734375000000e+04
-6.237197265625000000e+04
-6.238530078125000000e+04
-6.238679296875000000e+04
-6.239282031250000000e+04
-6.237291406250000000e+04
-6.237216406250000000e+04
-6.238651562500000000e+04
-6.237246875000000000e+04
-6.239966406250000000e+04
-6.239044531250000000e+04
-6.240064843750000000e+04
-6.239175390625000000e+04
-6.239104296875000000e+04
-6.238592968750000000e+04
-6.237262890625000000e+04
-6.239734375000000000e+04
-6.240717187500000000e+04
-6.238990234375000000e+04
-6.238847265625000000e+04
-6.236801562500000000e+04
-6.236957031250000000e+04
-6.239084375000000000e+04
-6.241800390625000000e+04
-6.240335156250000000e+04
-6.240042187500000000e+04
-6.236703125000000000e+04
-6.240297656250000000e+04
-6.240444921875000000e+04
-6.240677734375000000e+04
-6.239248828125000000e+04
-6.239075390625000000e+04
-6.239293359375000000e+04
-6.239104687500000000e+04
-6.239167968750000000e+04
-6.239450781250000000e+04
-6.236839843750000000e+04
-6.237291015625000000e+04
-6.237254687500000000e+04
-6.237181250000000000e+04
-6.239280859375000000e+04
-6.238873437500000000e+04
-6.241953515625000000e+04
-6.238606250000000000e+04
-6.238760937500000000e+04
-6.240378125000000000e+04
-6.237269140625000000e+04
-6.240058984375000000e+04
-6.237421875000000000e+04
-6.237074218750000000e+04
-6.237982031250000000e+04
-6.239130859375000000e+04
-6.238446875000000000e+04
-6.240388671875000000e+04
-6.238489453125000000e+04
-6.239035156250000000e+04
-6.236865234375000000e+04
-6.241057812500000000e+04
-6.240468359375000000e+04
-6.237173828125000000e+04
-6.239656250000000000e+04
-6.240473046875000000e+04
-6.239876953125000000e+04
-6.237066406250000000e+04
-6.238903515625000000e+04
-6.238660546875000000e+04
-6.237255468750000000e+04
-6.239632421875000000e+04
-6.238533203125000000e+04
-6.241060156250000000e+04
-6.240630859375000000e+04
-6.239554687500000000e+04
-6.236996484375000000e+04
-6.240160937500000000e+04
-6.237201953125000000e+04
-6.239020703125000000e+04
-6.239261718750000000e+04
-6.239428906250000000e+04
-6.240814453125000000e+04
-6.237024609375000000e+04
-6.239564062500000000e+04
-6.237957421875000000e+04
-6.236812109375000000e+04
-6.240130078125000000e+04
-6.241830859375000000e+04
-6.238562890625000000e+04
-6.240684375000000000e+04
-6.238751562500000000e+04
-6.237173046875000000e+04
-6.240563671875000000e+04
-6.241216796875000000e+04
-6.239753906250000000e+04
-6.238604296875000000e+04
-6.237515234375000000e+04
-6.236801562500000000e+04
-6.238814062500000000e+04
-6.238992187500000000e+04
-6.240442968750000000e+04
-6.236609765625000000e+04
-6.240295703125000000e+04
-6.239414843750000000e+04
-6.240025781250000000e+04
-6.237003906250000000e+04
-6.240516796875000000e+04
-6.238665234375000000e+04
-6.238628906250000000e+04
-6.237460546875000000e+04
-6.236853515625000000e+04
-6.240249218750000000e+04
-6.240582421875000000e+04
-6.237076562500000000e+04
-6.236480468750000000e+04
-6.237310546875000000e+04
-6.239057812500000000e+04
-6.239062890625000000e+04
-6.236722265625000000e+04
-6.241268750000000000e+04
-6.240426953125000000e+04
-6.240255078125000000e+04
-6.240662890625000000e+04
-6.240555078125000000e+04
-6.237116796875000000e+04
-6.237393359375000000e+04
-6.236754687500000000e+04
-6.238778515625000000e+04
-6.238692968750000000e+04
-6.236829687500000000e+04
-6.238753906250000000e+04
-6.236898046875000000e+04
-6.237210937500000000e+04
-6.236917578125000000e+04
-6.237137109375000000e+04
-6.236828125000000000e+04
-6.238657031250000000e+04
-6.236887500000000000e+04
-6.237029296875000000e+04
-6.240448828125000000e+04
-6.241005859375000000e+04
-6.239494531250000000e+04
-6.238544921875000000e+04
-6.238273437500000000e+04
-6.240310546875000000e+04
-6.240866015625000000e+04
-6.236933203125000000e+04
-6.240756640625000000e+04
-6.239117968750000000e+04
-6.240576171875000000e+04
-6.239123828125000000e+04
-6.239235546875000000e+04
-6.240093359375000000e+04
-6.238900390625000000e+04
-6.240701171875000000e+04
-6.240262890625000000e+04
-6.238872265625000000e+04
-6.240680468750000000e+04
-6.240165234375000000e+04
-6.240519140625000000e+04
-6.239137890625000000e+04
-6.240405078125000000e+04
-6.240432421875000000e+04
-6.240823828125000000e+04
-6.237450000000000000e+04
-6.237093359375000000e+04
-6.237301562500000000e+04
-6.240283984375000000e+04
-6.237057812500000000e+04
-6.237148046875000000e+04
-6.238705859375000000e+04
-6.240401171875000000e+04
-6.241281250000000000e+04