-3.258554077148437500e+01 -8.594630241394042969e+00 1.296317863464355469e+01 -8.594630241394042969e+00 -3.077050590515136719e+01 -1.301213383674621582e+00 1.296317863464355469e+01 -1.301213383674621582e+00 -2.676285028457641602e+00
-1.474833393096923828e+01 -9.955329895019531250e+00 -1.612650871276855469e+01 -9.955329895019531250e+00 -4.542275238037109375e+01 5.361934185028076172e+00 -1.612650871276855469e+01 5.361934185028076172e+00 -7.616243839263916016e+00
-1.743049812316894531e+01 -4.050153255462646484e+00 8.200990676879882812e+00 -4.050153255462646484e+00 2.584707069396972656e+01 3.436647415161132812e+00 8.200990676879882812e+00 3.436647415161132812e+00 1.436487102508544922e+01
1.761797332763671875e+01 -5.262222290039062500e+00 8.362374305725097656e+00 -5.262222290039062500e+00 -1.206894016265869141e+01 -9.760675430297851562e+00 8.362374305725097656e+00 -9.760675430297851562e+00 -8.437966346740722656e+00
1.480717372894287109e+01 3.344985485076904297e+00 1.201253890991210938e+01 3.344985485076904297e+00 -5.925863742828369141e+00 -2.644238710403442383e+00 1.201253890991210938e+01 -2.644238710403442383e+00 2.712023496627807617e+00
-2.797229385375976562e+01 -1.019929885864257812e+01 -1.046207070350646973e+00 -1.019929885864257812e+01 -5.707866668701171875e+00 -2.944407463073730469e+01 -1.046207070350646973e+00 -2.944407463073730469e+01 -1.678726387023925781e+01
5.806234359741210938e+00 8.197871208190917969e+00 7.851304531097412109e+00 8.197871208190917969e+00 -4.012756729125976562e+01 1.020529031753540039e+00 7.851304531097412109e+00 1.020529031753540039e+00 9.869783401489257812e+00
-1.370457077026367188e+01 -3.353561019897460938e+01 -2.307414077222347260e-02 -3.353561019897460938e+01 -8.996382713317871094e+00 8.854799270629882812e+00 -2.307414077222347260e-02 8.854799270629882812e+00 -3.832217025756835938e+01
-3.256494522094726562e+01 -7.062614917755126953e+00 -3.533442914485931396e-01 -7.062614917755126953e+00 -3.408962631225585938e+01 3.421843647956848145e-01 -3.533442914485931396e-01 3.421843647956848145e-01 -2.348259925842285156e+01
-2.979466056823730469e+01 -2.241176223754882812e+01 8.027665138244628906e+00 -2.241176223754882812e+01 -3.886882781982421875e+01 1.229743576049804688e+01 8.027665138244628906e+00 1.229743576049804688e+01 -2.369377136230468750e+01
1.854399681091308594e+01 3.574151754379272461e+00 -2.791350126266479492e+00 3.574151754379272461e+00 8.718768954277038574e-01 6.990668296813964844e+00 -2.791350126266479492e+00 6.990668296813964844e+00 3.675883102416992188e+01
-1.206048583984375000e+01 4.984964370727539062e+00 -7.685954093933105469e+00 4.984964370727539062e+00 -2.614098167419433594e+01 -1.622719573974609375e+01 -7.685954093933105469e+00 -1.622719573974609375e+01 1.251005458831787109e+01
-3.720910787582397461e+00 -8.402167320251464844e+00 9.525224685668945312e+00 -8.402167320251464844e+00 -3.753211975097656250e+01 -2.144539642333984375e+01 9.525224685668945312e+00 -2.144539642333984375e+01 -4.444705009460449219e+00
-2.194279479980468750e+01 6.084639072418212891e+00 2.517338514328002930e+00 6.084639072418212891e+00 -3.616673660278320312e+01 2.309145355224609375e+01 2.517338514328002930e+00 2.309145355224609375e+01 2.432017087936401367e+00
-3.368506193161010742e+00 -6.370001435279846191e-01 -3.845634841918945312e+01 -6.370001435279846191e-01 -1.023440265655517578e+01 -1.978045940399169922e+00 -3.845634841918945312e+01 -1.978045940399169922e+00 4.464879512786865234e+00
1.186489868164062500e+01 1.339574009180068970e-01 -1.125105953216552734e+01 1.339574009180068970e-01 -3.608053207397460938e+01 -1.161970996856689453e+01 -1.125105953216552734e+01 -1.161970996856689453e+01 -1.752100944519042969e+01
1.985800743103027344e+01 4.110438823699951172e-01 -1.268638992309570312e+01 4.110438823699951172e-01 1.058636856079101562e+01 -5.277714133262634277e-02 -1.268638992309570312e+01 -5.277714133262634277e-02 -7.507982730865478516e+00
-3.923873519897460938e+01 2.357354879379272461e+00 -9.986557960510253906e-01 2.357354879379272461e+00 -2.005944633483886719e+01 -8.711999058723449707e-01 -9.986557960510253906e-01 -8.711999058723449707e-01 -2.027665138244628906e+01
-3.334508895874023438e+01 -9.842672348022460938e+00 -1.257703018188476562e+01 -9.842672348022460938e+00 1.939386367797851562e+01 9.381101608276367188e+00 -1.257703018188476562e+01 9.381101608276367188e+00 -3.848079681396484375e+00
-4.775093841552734375e+01 3.658043384552001953e+00 -1.609206771850585938e+01 3.658043384552001953e+00 8.257808089256286621e-01 1.397333383560180664e+00 -1.609206771850585938e+01 1.397333383560180664e+00 1.572070598602294922e+01
-2.714477920532226562e+01 5.146969795227050781e+00 -3.203229522705078125e+01 5.146969795227050781e+00 -3.527635574340820312e+01 -8.929297447204589844e+00 -3.203229522705078125e+01 -8.929297447204589844e+00 -3.940948486328125000e+01
2.789356708526611328e+00 1.056613922119140625e+01 -6.811506748199462891e+00 1.056613922119140625e+01 -1.242447566986083984e+01 -1.005987834930419922e+01 -6.811506748199462891e+00 -1.005987834930419922e+01 1.054794883728027344e+01
-2.568387413024902344e+01 1.034011077880859375e+01 -1.063118457794189453e+00 1.034011077880859375e+01 -1.473317146301269531e+01 3.224809885025024414e+00 -1.063118457794189453e+00 3.224809885025024414e+00 7.184135913848876953e+00
1.595766735076904297e+01 5.453892707824707031e+00 2.045206069946289062e+00 5.453892707824707031e+00 -1.370342969894409180e+00 -1.188310146331787109e+01 2.045206069946289062e+00 -1.188310146331787109e+01 3.124393272399902344e+01
-5.284423828125000000e+00 -8.955995559692382812e+00 -1.844669723510742188e+01 -8.955995559692382812e+00 -1.555318355560302734e+01 -9.878692626953125000e+00 -1.844669723510742188e+01 -9.878692626953125000e+00 -2.765928077697753906e+01
-6.231230258941650391e+00 1.272770500183105469e+01 -3.042368888854980469e+00 1.272770500183105469e+01 -2.408526039123535156e+01 -1.521334350109100342e-01 -3.042368888854980469e+00 -1.521334350109100342e-01 3.403187942504882812e+01
-3.212284851074218750e+01 3.981124639511108398e+00 -8.836791992187500000e+00 3.981124639511108398e+00 -1.943940925598144531e+01 -8.882683753967285156e+00 -8.836791992187500000e+00 -8.882683753967285156e+00 -4.659378814697265625e+01
1.096569061279296875e+00 1.217756462097167969e+01 -1.298331832885742188e+01 1.217756462097167969e+01 -6.116880893707275391e+00 -1.237942218780517578e+01 -1.298331832885742188e+01 -1.237942218780517578e+01 1.599628067016601562e+01
-3.516930389404296875e+01 -2.432340383529663086e+00 -1.324936866760253906e+00 -2.432340383529663086e+00 -5.949934959411621094e+00 -5.341610431671142578e+00 -1.324936866760253906e+00 -5.341610431671142578e+00 -2.752680397033691406e+01
-3.869866943359375000e+01 2.461273384094238281e+01 -1.376554584503173828e+01 2.461273384094238281e+01 -2.188740921020507812e+01 -3.621291351318359375e+01 -1.376554584503173828e+01 -3.621291351318359375e+01 -2.520760154724121094e+01
-4.672552108764648438e+00 -6.562530517578125000e+00 5.450182437896728516e+00 -6.562530517578125000e+00 1.606948614120483398e+00 -1.135035991668701172e+01 5.450182437896728516e+00 -1.135035991668701172e+01 -2.757244110107421875e+01
3.482187652587890625e+01 -5.906734466552734375e+00 1.374711894989013672e+01 -5.906734466552734375e+00 2.105352210998535156e+01 5.063001155853271484e+00 1.374711894989013672e+01 5.063001155853271484e+00 6.376487731933593750e+00
1.784722709655761719e+01 -1.637197017669677734e+00 -3.016145515441894531e+01 -1.637197017669677734e+00 1.383701801300048828e+01 -1.685514068603515625e+01 -3.016145515441894531e+01 -1.685514068603515625e+01 3.738030672073364258e+00
-8.146009445190429688e+00 6.794053077697753906e+00 8.832158088684082031e+00 6.794053077697753906e+00 1.720341444015502930e+00 9.337558746337890625e+00 8.832158088684082031e+00 9.337558746337890625e+00 -3.038311767578125000e+01
-9.452001571655273438e+00 8.122491836547851562e+00 -7.213186740875244141e+00 8.122491836547851562e+00 -2.224690246582031250e+01 1.192300796508789062e+01 -7.213186740875244141e+00 1.192300796508789062e+01 -1.479145765304565430e+00
-5.826079940795898438e+01 1.201143026351928711e+00 1.744622802734375000e+01 1.201143026351928711e+00 -1.990949058532714844e+01 -8.387210845947265625e+00 1.744622802734375000e+01 -8.387210845947265625e+00 -5.528199386596679688e+01
-3.789768218994140625e+01 1.388039207458496094e+01 -1.092144870758056641e+01 1.388039207458496094e+01 -1.102114295959472656e+01 -2.840243816375732422e+00 -1.092144870758056641e+01 -2.840243816375732422e+00 -2.155215454101562500e+01
-6.638294219970703125e+00 -9.098418235778808594e+00 2.024180030822753906e+01 -9.098418235778808594e+00 -2.058163261413574219e+01 -7.518279075622558594e+00 2.024180030822753906e+01 -7.518279075622558594e+00 -3.589779281616210938e+01
-1.052142524719238281e+01 7.443915367126464844e+00 -1.635643005371093750e+01 7.443915367126464844e+00 -1.941642284393310547e+00 -1.491361141204833984e+00 -1.635643005371093750e+01 -1.491361141204833984e+00 4.237117290496826172e+00
2.203740501403808594e+01 2.392644691467285156e+01 -1.824448555707931519e-01 2.392644691467285156e+01 3.312227249145507812e+01 -6.989036083221435547e+00 -1.824448555707931519e-01 -6.989036083221435547e+00 -1.529168128967285156e+01
2.174623298645019531e+01 2.137845039367675781e+00 -8.324871063232421875e+00 2.137845039367675781e+00 2.731816530227661133e+00 -1.155560588836669922e+01 -8.324871063232421875e+00 -1.155560588836669922e+01 2.662131881713867188e+01
-1.969635367393493652e+00 2.693802833557128906e+00 7.028044223785400391e+00 2.693802833557128906e+00 1.146899414062500000e+01 -1.454580497741699219e+01 7.028044223785400391e+00 -1.454580497741699219e+01 -3.581316471099853516e+00
-3.379986190795898438e+01 7.164151191711425781e+00 1.444167733192443848e+00 7.164151191711425781e+00 -2.464135932922363281e+01 -8.472404479980468750e+00 1.444167733192443848e+00 -8.472404479980468750e+00 -1.136551570892333984e+01
3.417357921600341797e+00 8.332077980041503906e+00 5.305188179016113281e+00 8.332077980041503906e+00 -1.390601634979248047e+01 4.734607696533203125e+00 5.305188179016113281e+00 4.734607696533203125e+00 -6.757831573486328125e+00
-4.062012672424316406e+00 7.414005279541015625e+00 1.315026664733886719e+01 7.414005279541015625e+00 -8.359260559082031250e+00 -8.574679374694824219e+00 1.315026664733886719e+01 -8.574679374694824219e+00 2.049803018569946289e+00
2.167294692993164062e+01 9.768013000488281250e+00 -1.612126922607421875e+01 9.768013000488281250e+00 2.286941766738891602e+00 -3.858442306518554688e+00 -1.612126922607421875e+01 -3.858442306518554688e+00 -9.809546470642089844e+00
-9.842417716979980469e+00 -1.145211696624755859e+00 -4.738387107849121094e+00 -1.145211696624755859e+00 -2.470174598693847656e+01 -1.194120502471923828e+01 -4.738387107849121094e+00 -1.194120502471923828e+01 -2.450991439819335938e+01
-2.491432762145996094e+01 -1.022103905677795410e+00 -1.244455337524414062e+01 -1.022103905677795410e+00 -1.728573799133300781e+01 -6.702642917633056641e+00 -1.244455337524414062e+01 -6.702642917633056641e+00 -5.185806274414062500e+00
2.014130210876464844e+01 8.222767829895019531e+00 1.302121734619140625e+01 8.222767829895019531e+00 1.961667823791503906e+01 1.133357715606689453e+01 1.302121734619140625e+01 1.133357715606689453e+01 4.569595336914062500e+01
-6.052967071533203125e+00 -2.649035453796386719e+00 3.442585706710815430e+00 -2.649035453796386719e+00 -3.324998855590820312e+01 2.977050065994262695e+00 3.442585706710815430e+00 2.977050065994262695e+00 -1.009079456329345703e+01
2.152908134460449219e+01 8.337780952453613281e+00 6.005939960479736328e+00 8.337780952453613281e+00 -2.590801239013671875e+01 3.231293678283691406e+00 6.005939960479736328e+00 3.231293678283691406e+00 -3.482024002075195312e+01
-5.631090545654296875e+01 7.150426387786865234e+00 8.106538057327270508e-01 7.150426387786865234e+00 -9.041168212890625000e+00 -6.765586853027343750e+00 8.106538057327270508e-01 -6.765586853027343750e+00 -1.705250358581542969e+01
1.660362720489501953e+00 -6.722355842590332031e+00 2.320254516601562500e+01 -6.722355842590332031e+00 6.234757900238037109e+00 2.851842880249023438e+00 2.320254516601562500e+01 2.851842880249023438e+00 -1.843905639648437500e+01
-3.404035186767578125e+01 -1.509560108184814453e+01 -1.903560447692871094e+01 -1.509560108184814453e+01 -1.200604343414306641e+01 4.987353324890136719e+00 -1.903560447692871094e+01 4.987353324890136719e+00 -2.179171371459960938e+01
-1.111371231079101562e+01 7.624310016632080078e+00 2.482493400573730469e+00 7.624310016632080078e+00 -3.551277923583984375e+01 -1.438928031921386719e+01 2.482493400573730469e+00 -1.438928031921386719e+01 -1.792338180541992188e+01
-2.176288986206054688e+01 9.922726631164550781e+00 -6.101017475128173828e+00 9.922726631164550781e+00 -1.557568073272705078e+00 1.127986907958984375e+01 -6.101017475128173828e+00 1.127986907958984375e+01 -3.061049842834472656e+01
-2.327149200439453125e+01 1.181094741821289062e+01 -1.397054004669189453e+01 1.181094741821289062e+01 -9.068010330200195312e+00 3.236936569213867188e+00 -1.397054004669189453e+01 3.236936569213867188e+00 -3.846716165542602539e+00
-7.267676353454589844e+00 9.175492286682128906e+00 -1.625289916992187500e+01 9.175492286682128906e+00 -7.815733909606933594e+00 9.193935394287109375e+00 -1.625289916992187500e+01 9.193935394287109375e+00 -3.293009948730468750e+01
7.102988719940185547e+00 -2.485032320022583008e+00 8.186758041381835938e+00 -2.485032320022583008e+00 3.567422389984130859e+00 1.506276988983154297e+01 8.186758041381835938e+00 1.506276988983154297e+01 -2.243373870849609375e+01
-1.480863857269287109e+01 1.262585639953613281e+01 2.005928993225097656e+00 1.262585639953613281e+01 -1.964960289001464844e+01 3.755334317684173584e-01 2.005928993225097656e+00 3.755334317684173584e-01 1.738022232055664062e+01
-1.652559280395507812e+01 -1.014742946624755859e+01 7.939147472381591797e+00 -1.014742946624755859e+01 -1.658295440673828125e+01 3.619397878646850586e+00 7.939147472381591797e+00 3.619397878646850586e+00 -5.745532512664794922e+00
-1.775192642211914062e+01 1.049370861053466797e+01 -4.916294097900390625e+00 1.049370861053466797e+01 -3.565724134445190430e+00 5.845212459564208984e+00 -4.916294097900390625e+00 5.845212459564208984e+00 -2.443517684936523438e+01
-6.023926544189453125e+01 1.660419273376464844e+01 -1.724852180480957031e+01 1.660419273376464844e+01 -3.641805648803710938e+01 7.747292041778564453e+00 -1.724852180480957031e+01 7.747292041778564453e+00 -6.954360961914062500e+01
-4.161403274536132812e+01 -2.520639896392822266e+00 -1.642546272277832031e+01 -2.520639896392822266e+00 -9.155093193054199219e+00 -4.872963726520538330e-01 -1.642546272277832031e+01 -4.872963726520538330e-01 -2.418797874450683594e+01
4.922369480133056641e+00 -7.302783489227294922e+00 -3.263115644454956055e+00 -7.302783489227294922e+00 1.476850128173828125e+01 1.055435180664062500e+01 -3.263115644454956055e+00 1.055435180664062500e+01 1.949829101562500000e+01
2.059015989303588867e+00 -7.123570919036865234e+00 9.089921951293945312e+00 -7.123570919036865234e+00 1.605451202392578125e+01 -1.294215583801269531e+01 9.089921951293945312e+00 -1.294215583801269531e+01 -6.020858764648437500e+00
-2.393915748596191406e+01 1.026975631713867188e+01 -2.190057945251464844e+01 1.026975631713867188e+01 -1.127874374389648438e+01 1.181031513214111328e+01 -2.190057945251464844e+01 1.181031513214111328e+01 -2.428124427795410156e+01
-4.207586669921875000e+01 1.005043148994445801e+00 -2.271278190612792969e+01 1.005043148994445801e+00 -3.381398010253906250e+01 -2.427243041992187500e+01 -2.271278190612792969e+01 -2.427243041992187500e+01 -3.561979293823242188e+01
-2.826105880737304688e+01 9.085309982299804688e+00 8.854530453681945801e-01 9.085309982299804688e+00 -4.160675525665283203e+00 -1.521403884887695312e+01 8.854530453681945801e-01 -1.521403884887695312e+01 1.918552780151367188e+01
-2.902461051940917969e+01 1.515198707580566406e+01 1.907705903053283691e+00 1.515198707580566406e+01 -1.907720947265625000e+01 2.661687469482421875e+01 1.907705903053283691e+00 2.661687469482421875e+01 -4.083296966552734375e+01
-1.106642246246337891e+01 -1.572063350677490234e+01 -3.420605182647705078e+00 -1.572063350677490234e+01 7.788311958312988281e+00 7.235805988311767578e+00 -3.420605182647705078e+00 7.235805988311767578e+00 -3.442826509475708008e+00
3.720730209350585938e+01 7.283537864685058594e+00 1.962825393676757812e+01 7.283537864685058594e+00 6.162068367004394531e+00 -4.634549140930175781e+00 1.962825393676757812e+01 -4.634549140930175781e+00 3.212173843383789062e+01
-1.027910041809082031e+01 -3.444667339324951172e+00 -1.464542007446289062e+01 -3.444667339324951172e+00 -1.308117866516113281e+01 7.343209266662597656e+00 -1.464542007446289062e+01 7.343209266662597656e+00 2.327831268310546875e+01
4.139414310455322266e+00 -3.672733306884765625e-01 -2.031119823455810547e+00 -3.672733306884765625e-01 1.111937046051025391e+01 8.857296407222747803e-02 -2.031119823455810547e+00 8.857296407222747803e-02 2.607101440429687500e+01
-1.232062625885009766e+01 -5.412683486938476562e-01 -7.567886710166931152e-01 -5.412683486938476562e-01 8.213551640510559082e-01 2.117302417755126953e+00 -7.567886710166931152e-01 2.117302417755126953e+00 -2.193068695068359375e+01
2.151124572753906250e+01 7.191318273544311523e-01 6.878615379333496094e+00 7.191318273544311523e-01 9.040797233581542969e+00 -3.012854814529418945e+00 6.878615379333496094e+00 -3.012854814529418945e+00 1.707494163513183594e+01
-1.067390155792236328e+01 9.490587234497070312e+00 1.185058975219726562e+01 9.490587234497070312e+00 -1.979396057128906250e+01 -5.576515197753906250e+00 1.185058975219726562e+01 -5.576515197753906250e+00 -2.828447151184082031e+01
-4.439341735839843750e+01 4.944063663482666016e+00 1.126097869873046875e+01 4.944063663482666016e+00 -3.505097579956054688e+01 1.295459175109863281e+01 1.126097869873046875e+01 1.295459175109863281e+01 -2.720348930358886719e+01
-3.101472616195678711e+00 -8.697841644287109375e+00 1.074397945404052734e+01 -8.697841644287109375e+00 -1.141412830352783203e+01 8.329330444335937500e+00 1.074397945404052734e+01 8.329330444335937500e+00 -1.126632022857666016e+01
-4.742969131469726562e+01 -1.434659767150878906e+01 -1.956461143493652344e+01 -1.434659767150878906e+01 -4.003031921386718750e+01 -5.568784713745117188e+00 -1.956461143493652344e+01 -5.568784713745117188e+00 -1.960654258728027344e+01
-1.971107292175292969e+01 -2.658483743667602539e+00 -1.390406894683837891e+01 -2.658483743667602539e+00 -2.162486839294433594e+01 -3.521885275840759277e-01 -1.390406894683837891e+01 -3.521885275840759277e-01 -1.674337577819824219e+01
-1.383924198150634766e+01 6.798127651214599609e+00 -1.413197898864746094e+01 6.798127651214599609e+00 -2.839355707168579102e+00 -1.884430766105651855e+00 -1.413197898864746094e+01 -1.884430766105651855e+00 2.069158554077148438e+01
-1.332515811920166016e+01 -1.479494571685791016e+01 -6.658796310424804688e+00 -1.479494571685791016e+01 -9.681499481201171875e+00 -1.229281520843505859e+01 -6.658796310424804688e+00 -1.229281520843505859e+01 2.201133346557617188e+01
2.149695396423339844e+01 1.404050946235656738e+00 7.937831282615661621e-01 1.404050946235656738e+00 -4.049463748931884766e+00 4.180426120758056641e+00 7.937831282615661621e-01 4.180426120758056641e+00 1.886680030822753906e+01
-3.119999885559082031e+01 -1.253715515136718750e+01 1.225818157196044922e+01 -1.253715515136718750e+01 -3.534185409545898438e+01 -1.367910480499267578e+01 1.225818157196044922e+01 -1.367910480499267578e+01 -1.754643821716308594e+01
-3.522535324096679688e+01 -1.300312900543212891e+01 3.445739269256591797e+00 -1.300312900543212891e+01 -3.481322479248046875e+01 1.077645874023437500e+01 3.445739269256591797e+00 1.077645874023437500e+01 -4.067336273193359375e+01
-2.342508125305175781e+01 -9.353413581848144531e+00 1.441180133819580078e+01 -9.353413581848144531e+00 -5.176748752593994141e+00 -1.130676651000976562e+01 1.441180133819580078e+01 -1.130676651000976562e+01 -4.387173080444335938e+01
-1.056500911712646484e+01 1.163996124267578125e+01 -1.488744926452636719e+01 1.163996124267578125e+01 -1.151400661468505859e+01 9.476059079170227051e-01 -1.488744926452636719e+01 9.476059079170227051e-01 5.885976314544677734e+00
-1.892794609069824219e+01 -6.483073234558105469e+00 -6.374447345733642578e+00 -6.483073234558105469e+00 -5.195953750610351562e+01 -6.320968627929687500e+00 -6.374447345733642578e+00 -6.320968627929687500e+00 -3.874361801147460938e+01
1.865328979492187500e+01 2.242210960388183594e+01 -5.460336804389953613e-01 2.242210960388183594e+01 3.962918519973754883e+00 -1.936993408203125000e+01 -5.460336804389953613e-01 -1.936993408203125000e+01 2.947227096557617188e+01
-4.218017959594726562e+01 5.669593334197998047e+00 1.486472320556640625e+01 5.669593334197998047e+00 -2.141679000854492188e+01 -1.319468879699707031e+01 1.486472320556640625e+01 -1.319468879699707031e+01 -3.252953338623046875e+01
1.677583694458007812e+01 -4.472236156463623047e+00 1.223400974273681641e+01 -4.472236156463623047e+00 -1.116726970672607422e+01 -6.876808643341064453e+00 1.223400974273681641e+01 -6.876808643341064453e+00 4.433911800384521484e+00
6.214747905731201172e+00 -5.963287353515625000e+00 -3.182686328887939453e+00 -5.963287353515625000e+00 -1.388653755187988281e+01 -5.511547565460205078e+00 -3.182686328887939453e+00 -5.511547565460205078e+00 -9.921061515808105469e+00
-5.234346389770507812e+01 -5.656766414642333984e+00 1.866571903228759766e+00 -5.656766414642333984e+00 -3.847433090209960938e+01 -7.771861076354980469e+00 1.866571903228759766e+00 -7.771861076354980469e+00 -2.150465393066406250e+01
1.849038124084472656e+01 4.069433212280273438e+00 9.726976394653320312e+00 4.069433212280273438e+00 1.040458297729492188e+01 -8.646233558654785156e+00 9.726976394653320312e+00 -8.646233558654785156e+00 -4.345169448852539062e+01
-1.456124114990234375e+01 -2.228758811950683594e+00 -1.229550266265869141e+01 -2.228758811950683594e+00 -7.190393447875976562e+00 1.072129058837890625e+01 -1.229550266265869141e+01 1.072129058837890625e+01 -1.396843147277832031e+01
4.121208667755126953e+00 1.515613174438476562e+01 -3.072926282882690430e+00 1.515613174438476562e+01 -7.093237876892089844e+00 -4.355032920837402344e+00 -3.072926282882690430e+00 -4.355032920837402344e+00 7.247203350067138672e+00
1.326295089721679688e+01 -1.933787345886230469e+01 -7.017850875854492188e+00 -1.933787345886230469e+01 -7.149332165718078613e-01 -2.545512580871582031e+01 -7.017850875854492188e+00 -2.545512580871582031e+01 2.067881965637207031e+01
2.614141702651977539e+00 -1.758889198303222656e+00 3.413037300109863281e+00 -1.758889198303222656e+00 3.285991287231445312e+01 -1.323285865783691406e+01 3.413037300109863281e+00 -1.323285865783691406e+01 2.008665466308593750e+01
-6.092317199707031250e+01 -8.039251327514648438e+00 5.755105495452880859e+00 -8.039251327514648438e+00 -3.711392211914062500e+01 2.684244346618652344e+01 5.755105495452880859e+00 2.684244346618652344e+01 3.650405406951904297e+00
-3.588289737701416016e+00 -7.989889621734619141e+00 -1.516637325286865234e+01 -7.989889621734619141e+00 -1.789485740661621094e+01 7.038322925567626953e+00 -1.516637325286865234e+01 7.038322925567626953e+00 2.655750846862792969e+01
5.033799171447753906e+00 1.374226951599121094e+01 -2.138148117065429688e+01 1.374226951599121094e+01 -1.057851314544677734e+01 8.851940631866455078e-01 -2.138148117065429688e+01 8.851940631866455078e-01 -2.270982742309570312e+00
-2.278608322143554688e+01 -4.145901203155517578e+00 -3.366575241088867188e+01 -4.145901203155517578e+00 -1.291733646392822266e+01 2.322440862655639648e+00 -3.366575241088867188e+01 2.322440862655639648e+00 3.137559652328491211e+00
-3.803821182250976562e+01 -8.515222549438476562e+00 -1.125656414031982422e+01 -8.515222549438476562e+00 -3.193330001831054688e+01 -7.659069538116455078e+00 -1.125656414031982422e+01 -7.659069538116455078e+00 -3.331188485026359558e-02
-1.995701980590820312e+01 8.430267333984375000e+00 7.429603576660156250e+00 8.430267333984375000e+00 -1.577200508117675781e+01 9.197860717773437500e+00 7.429603576660156250e+00 9.197860717773437500e+00 -3.375218200683593750e+01
2.400751352310180664e+00 -4.220457553863525391e+00 4.311871528625488281e+00 -4.220457553863525391e+00 -7.834213733673095703e+00 -5.461539745330810547e+00 4.311871528625488281e+00 -5.461539745330810547e+00 1.564309692382812500e+01
2.880017757415771484e+00 -6.580364704132080078e+00 -5.145428657531738281e+00 -6.580364704132080078e+00 -2.286341667175292969e+01 -8.117180824279785156e+00 -5.145428657531738281e+00 -8.117180824279785156e+00 -1.815970611572265625e+01
1.739663696289062500e+01 -2.591882896423339844e+01 -1.990316009521484375e+01 -2.591882896423339844e+01 -1.245574665069580078e+01 -5.272004753351211548e-02 -1.990316009521484375e+01 -5.272004753351211548e-02 2.373144912719726562e+01
-1.212067031860351562e+01 3.642865180969238281e+00 1.449129772186279297e+01 3.642865180969238281e+00 -3.015829086303710938e+01 -7.063393592834472656e+00 1.449129772186279297e+01 -7.063393592834472656e+00 -2.327030181884765625e+00
-2.747442054748535156e+01 2.208042716979980469e+01 -2.910760402679443359e+00 2.208042716979980469e+01 -1.670738792419433594e+01 2.711653411388397217e-01 -2.910760402679443359e+00 2.711653411388397217e-01 -2.674234771728515625e+01
1.080403518676757812e+01 -5.821915149688720703e+00 -9.150428771972656250e-01 -5.821915149688720703e+00 -1.116189479827880859e+01 -2.877674698829650879e-01 -9.150428771972656250e-01 -2.877674698829650879e-01 -1.646291351318359375e+01
8.738068580627441406e+00 -2.630522966384887695e+00 -3.989324271678924561e-01 -2.630522966384887695e+00 -1.201725769042968750e+01 -5.169471740722656250e+00 -3.989324271678924561e-01 -5.169471740722656250e+00 -3.107187080383300781e+01
-1.733046340942382812e+01 1.570258617401123047e+01 -6.890084743499755859e-01 1.570258617401123047e+01 -1.013360118865966797e+01 4.610950469970703125e+00 -6.890084743499755859e-01 4.610950469970703125e+00 -1.347423648834228516e+01
2.000677108764648438e+01 7.738243579864501953e+00 3.561096668243408203e+00 7.738243579864501953e+00 -1.478044605255126953e+01 -3.835466384887695312e+00 3.561096668243408203e+00 -3.835466384887695312e+00 -9.602780342102050781e+00
-1.521737098693847656e+00 -5.059654235839843750e+00 1.079780292510986328e+01 -5.059654235839843750e+00 5.204640579223632812e+01 -1.790211677551269531e+01 1.079780292510986328e+01 -1.790211677551269531e+01 -1.618421077728271484e-01
1.426102542877197266e+01 1.347784328460693359e+01 4.817611694335937500e+00 1.347784328460693359e+01 -9.511321067810058594e+00 -8.267177581787109375e+00 4.817611694335937500e+00 -8.267177581787109375e+00 1.162699890136718750e+01
-2.767967414855957031e+01 -1.516895413398742676e+00 3.594986200332641602e+00 -1.516895413398742676e+00 -2.590920448303222656e+01 -4.132659912109375000e+00 3.594986200332641602e+00 -4.132659912109375000e+00 -2.332338523864746094e+01
3.887134313583374023e+00 9.625868797302246094e+00 3.104505538940429688e-01 9.625868797302246094e+00 -1.612944006919860840e+00 -5.026014328002929688e+00 3.104505538940429688e-01 -5.026014328002929688e+00 -2.301549339294433594e+01
-1.450520634651184082e+00 1.240580654144287109e+01 -1.683563995361328125e+01 1.240580654144287109e+01 4.334450531005859375e+01 1.465536952018737793e+00 -1.683563995361328125e+01 1.465536952018737793e+00 2.025097656250000000e+01
1.356726837158203125e+01 1.036669731140136719e+01 -6.824734807014465332e-01 1.036669731140136719e+01 -4.561089992523193359e+00 -2.731429815292358398e+00 -6.824734807014465332e-01 -2.731429815292358398e+00 5.352503776550292969e+00
-7.059430122375488281e+00 2.159191894531250000e+01 -1.527275800704956055e+00 2.159191894531250000e+01 -2.319227409362792969e+01 2.305879116058349609e+00 -1.527275800704956055e+00 2.305879116058349609e+00 -1.474270820617675781e+01
-2.614585494995117188e+01 2.779323816299438477e+00 -7.976725578308105469e+00 2.779323816299438477e+00 -1.444925308227539062e+00 -1.548867797851562500e+01 -7.976725578308105469e+00 -1.548867797851562500e+01 1.280716514587402344e+01
9.873978614807128906e+00 4.519752025604248047e+00 1.223289680480957031e+01 4.519752025604248047e+00 -4.438902378082275391e+00 -9.845444679260253906e+00 1.223289680480957031e+01 -9.845444679260253906e+00 5.744632339477539062e+01
-2.584312248229980469e+01 -1.264466476440429688e+01 -4.357158184051513672e+00 -1.264466476440429688e+01 1.083452415466308594e+01 1.348438739776611328e+01 -4.357158184051513672e+00 1.348438739776611328e+01 -2.086540985107421875e+01
-4.573926544189453125e+01 1.295299053192138672e+01 -1.222961425781250000e+00 1.295299053192138672e+01 -1.664124870300292969e+01 -4.411171436309814453e+00 -1.222961425781250000e+00 -4.411171436309814453e+00 -3.818118286132812500e+01
9.423613548278808594e-01 -1.277330780029296875e+01 -1.755104422569274902e+00 -1.277330780029296875e+01 -1.012586879730224609e+01 -1.061389350891113281e+01 -1.755104422569274902e+00 -1.061389350891113281e+01 1.560917568206787109e+01
-9.991516113281250000e+00 -4.163612842559814453e+00 -8.845475196838378906e+00 -4.163612842559814453e+00 -2.679908370971679688e+01 1.979036211967468262e+00 -8.845475196838378906e+00 1.979036211967468262e+00 -2.038804817199707031e+01
-1.506007385253906250e+01 -2.930696010589599609e+00 8.167659759521484375e+00 -2.930696010589599609e+00 -3.496541213989257812e+01 -1.048374938964843750e+01 8.167659759521484375e+00 -1.048374938964843750e+01 -8.124866485595703125e+00
7.894446849822998047e+00 4.302555084228515625e+00 5.620552062988281250e+00 4.302555084228515625e+00 1.376311969757080078e+01 5.076047897338867188e+00 5.620552062988281250e+00 5.076047897338867188e+00 3.785248184204101562e+01
-1.837162017822265625e+01 4.125151157379150391e+00 -4.846086502075195312e+00 4.125151157379150391e+00 -2.521803855895996094e+01 5.034824848175048828e+00 -4.846086502075195312e+00 5.034824848175048828e+00 -2.618138074874877930e+00